  python dir          : /home/p.schindler/.conda/envs/dft3_8/lib/python3.8/site-packages/espresso
  espresso dir        : /home/p.schindler/q-e_7-1/bin/
  pseudo dir          : /home/p.schindler/q-e_7-1/PSPs/Vanderbilt_USPP_PBE/
  ase-espresso py git : 4b1d7e3-git



     Program PWSCF v.7.1 starts on  8Aug2023 at  2: 5:58 

     This program is part of the open-source Quantum ESPRESSO suite
     for quantum simulation of materials; please cite
         "P. Giannozzi et al., J. Phys.:Condens. Matter 21 395502 (2009);
         "P. Giannozzi et al., J. Phys.:Condens. Matter 29 465901 (2017);
         "P. Giannozzi et al., J. Chem. Phys. 152 154105 (2020);
          URL http://www.quantum-espresso.org", 
     in publications or presentations arising from this work. More details at
     http://www.quantum-espresso.org/quote

     Parallel version (MPI), running on    20 processors

     MPI processes distributed on     1 nodes
     49706 MiB available memory on the printing compute node when the environment starts
 
     Reading input from pw.inp

     Current dimensions of program PWSCF are:
     Max number of different atomic species (ntypx) = 10
     Max number of k-points (npk) =  40000
     Max angular momentum in pseudopotentials (lmaxx) =  4
     Presently no symmetry can be used with electric field


     IMPORTANT: XC functional enforced from input :
     Exchange-correlation= PBE
                           (   1   4   3   4   0   0   0)
     Any further DFT definition will be discarded
     Please, verify this is what you really want

 
     R & G space division:  proc/nbgrp/npool/nimage =      20
     Subspace diagonalization in iterative solution of the eigenvalue problem:
     a serial algorithm will be used

 
     Parallelization info
     --------------------
     sticks:   dense  smooth     PW     G-vecs:    dense   smooth      PW
     Min         419     167     47               108581    27446    4082
     Max         420     168     48               108598    27456    4090
     Sum        8383    3353    943              2171693   549027   81689
 
     Using Slab Decomposition
 


     bravais-lattice index     =            0
     lattice parameter (alat)  =       7.1647  a.u.
     unit-cell volume          =    8235.0899 (a.u.)^3
     number of atoms/cell      =           16
     number of atomic types    =            1
     number of electrons       =       176.00
     number of Kohn-Sham states=          118
     kinetic-energy cutoff     =      62.4738  Ry
     charge density cutoff     =     624.7385  Ry
     scf convergence threshold =      7.3E-07
     mixing beta               =       0.1500
     number of iterations used =           10  local-TF  mixing
     Exchange-correlation= PBE
                           (   1   4   3   4   0   0   0)

     celldm(1)=   7.164672  celldm(2)=   0.000000  celldm(3)=   0.000000
     celldm(4)=   0.000000  celldm(5)=   0.000000  celldm(6)=   0.000000

     crystal axes: (cart. coord. in units of alat)
               a(1) = (   0.500000   0.866025   0.000000 )  
               a(2) = (  -0.500000   0.866025   3.171831 )  
               a(3) = (   6.113643  -3.529713   0.000000 )  

     reciprocal axes: (cart. coord. in units 2 pi/alat)
               b(1) = (  0.500000  0.866025 -0.157638 )  
               b(2) = (  0.000000  0.000000  0.315275 )  
               b(3) = (  0.122676 -0.070827  0.038677 )  


     PseudoPot. # 1 for La read from file:
     /home/p.schindler/q-e_7-1/PSPs/Vanderbilt_USPP_PBE/La.UPF
     MD5 check sum: 5937b0c7494ba0601a847275249473aa
     Pseudo is Ultrasoft + core correction, Zval = 11.0
     Generated by new atomic code, or converted to UPF format
     Using radial grid of  995 points,  8 beta functions with: 
                l(1) =   0
                l(2) =   0
                l(3) =   1
                l(4) =   1
                l(5) =   2
                l(6) =   2
                l(7) =   3
                l(8) =   3
     Q(r) pseudized with  8 coefficients,  rinner =    1.700   1.700   1.700
                                                       1.700   1.700   1.700
                                                       1.700

     atomic species   valence    mass     pseudopotential
        La1           11.00   138.90547     La( 1.00)

     No symmetry found



   Cartesian axes

     site n.     atom                  positions (alat units)
         1           La1 tau(   1) = (   1.7131463  -0.9890855   0.0000000  )
         2           La1 tau(   2) = (   3.2131463  -1.8551109   0.0000000  )
         3           La1 tau(   3) = (   2.7129963  -0.9889989   0.0000000  )
         4           La1 tau(   4) = (   4.2129963  -1.8550243   0.0000000  )
         5           La1 tau(   5) = (   2.2129963  -0.1229735   1.5859154  )
         6           La1 tau(   6) = (   3.7129963  -0.9889989   1.5859154  )
         7           La1 tau(   7) = (   2.7129963  -0.9889989   1.5859154  )
         8           La1 tau(   8) = (   4.2129963  -1.8550243   1.5859154  )
         9           La1 tau(   9) = (   2.2129963  -0.7003237   0.7929577  )
        10           La1 tau(  10) = (   3.7129963  -1.5663491   0.7929577  )
        11           La1 tau(  11) = (   3.2129963  -0.7003237   0.7929577  )
        12           La1 tau(  12) = (   4.7129963  -1.5663491   0.7929577  )
        13           La1 tau(  13) = (   2.7129963  -0.4116486   2.3788731  )
        14           La1 tau(  14) = (   4.2129963  -1.2776740   2.3788731  )
        15           La1 tau(  15) = (   1.7129963  -0.4116486   2.3788731  )
        16           La1 tau(  16) = (   3.2129963  -1.2776740   2.3788731  )

     number of k points=    44  Gaussian smearing, width (Ry)=  0.0147
                       cart. coord. in units 2pi/alat
        k(    1) = (   0.0000000   0.0000000   0.0000000), wk =   0.0238095
        k(    2) = (   0.0000000   0.0000000   0.0525459), wk =   0.0476190
        k(    3) = (   0.0000000   0.0000000   0.1050918), wk =   0.0476190
        k(    4) = (   0.0000000   0.0000000  -0.1576377), wk =   0.0238095
        k(    5) = (   0.0357143   0.0618590  -0.0112598), wk =   0.0476190
        k(    6) = (   0.0357143   0.0618590   0.0412861), wk =   0.0476190
        k(    7) = (   0.0357143   0.0618590   0.0938319), wk =   0.0476190
        k(    8) = (   0.0357143   0.0618590  -0.1688975), wk =   0.0476190
        k(    9) = (   0.0357143   0.0618590  -0.1163516), wk =   0.0476190
        k(   10) = (   0.0357143   0.0618590  -0.0638057), wk =   0.0476190
        k(   11) = (   0.0714286   0.1237179  -0.0225197), wk =   0.0476190
        k(   12) = (   0.0714286   0.1237179   0.0300262), wk =   0.0476190
        k(   13) = (   0.0714286   0.1237179   0.0825721), wk =   0.0476190
        k(   14) = (   0.0714286   0.1237179  -0.1801573), wk =   0.0476190
        k(   15) = (   0.0714286   0.1237179  -0.1276114), wk =   0.0476190
        k(   16) = (   0.0714286   0.1237179  -0.0750656), wk =   0.0476190
        k(   17) = (   0.1071429   0.1855769  -0.0337795), wk =   0.0476190
        k(   18) = (   0.1071429   0.1855769   0.0187664), wk =   0.0476190
        k(   19) = (   0.1071429   0.1855769   0.0713123), wk =   0.0476190
        k(   20) = (   0.1071429   0.1855769  -0.1914172), wk =   0.0476190
        k(   21) = (   0.1071429   0.1855769  -0.1388713), wk =   0.0476190
        k(   22) = (   0.1071429   0.1855769  -0.0863254), wk =   0.0476190
        k(   23) = (   0.1428571   0.2474358  -0.0450393), wk =   0.0476190
        k(   24) = (   0.1428571   0.2474358   0.0075066), wk =   0.0476190
        k(   25) = (   0.1428571   0.2474358   0.0600524), wk =   0.0476190
        k(   26) = (   0.1428571   0.2474358  -0.2026770), wk =   0.0476190
        k(   27) = (   0.1428571   0.2474358  -0.1501311), wk =   0.0476190
        k(   28) = (   0.1428571   0.2474358  -0.0975852), wk =   0.0476190
        k(   29) = (   0.1785714   0.3092948  -0.0562992), wk =   0.0476190
        k(   30) = (   0.1785714   0.3092948  -0.0037533), wk =   0.0476190
        k(   31) = (   0.1785714   0.3092948   0.0487926), wk =   0.0476190
        k(   32) = (   0.1785714   0.3092948  -0.2139368), wk =   0.0476190
        k(   33) = (   0.1785714   0.3092948  -0.1613909), wk =   0.0476190
        k(   34) = (   0.1785714   0.3092948  -0.1088451), wk =   0.0476190
        k(   35) = (   0.2142857   0.3711537  -0.0675590), wk =   0.0476190
        k(   36) = (   0.2142857   0.3711537  -0.0150131), wk =   0.0476190
        k(   37) = (   0.2142857   0.3711537   0.0375328), wk =   0.0476190
        k(   38) = (   0.2142857   0.3711537  -0.2251967), wk =   0.0476190
        k(   39) = (   0.2142857   0.3711537  -0.1726508), wk =   0.0476190
        k(   40) = (   0.2142857   0.3711537  -0.1201049), wk =   0.0476190
        k(   41) = (  -0.2500000  -0.4330127   0.0788188), wk =   0.0238095
        k(   42) = (  -0.2500000  -0.4330127   0.1313647), wk =   0.0476190
        k(   43) = (  -0.2500000  -0.4330127   0.1839106), wk =   0.0476190
        k(   44) = (  -0.2500000  -0.4330127  -0.0788188), wk =   0.0238095

     Dense  grid:  2171693 G-vectors     FFT dimensions: (  60, 192, 405)

     Smooth grid:   549027 G-vectors     FFT dimensions: (  40, 120, 256)

     Estimated max dynamical RAM per process >       1.34 GB

     Estimated total dynamical RAM >      26.84 GB

     Initial potential from superposition of free atoms

     starting charge     175.4869, renormalised to     176.0000

     negative rho (up, down):  1.124E+00 0.000E+00
 
     Adding external electric field

     Computed dipole along edir(3) : 
        Dipole                0.0000 Ry au,          0.0000 Debye
        Dipole field          0.0000 Ry au, 
 
        Potential amp.       -0.0000 Ry
        Total length         49.3140 bohr
 
     Starting wfcs are  320 randomized atomic wfcs

     total cpu time spent up to now is       52.4 secs

     Self-consistent Calculation

     iteration #  1     ecut=    62.47 Ry     beta= 0.15
     Davidson diagonalization with overlap
     ethr =  1.00E-02,  avg # of iterations =  2.0

     negative rho (up, down):  1.073E+00 0.000E+00
 
     Adding external electric field

     Computed dipole along edir(3) : 
        Dipole               -0.0042 Ry au,         -0.0107 Debye
        Dipole field         -0.0000 Ry au, 
 
        Potential amp.        0.0006 Ry
        Total length         49.3140 bohr
 

     total cpu time spent up to now is      115.0 secs

     total energy              =   -1641.51631435 Ry
     estimated scf accuracy    <      13.18245722 Ry

     iteration #  2     ecut=    62.47 Ry     beta= 0.15
     Davidson diagonalization with overlap
     ethr =  7.49E-03,  avg # of iterations =  1.0

     negative rho (up, down):  7.464E-01 0.000E+00
 
     Adding external electric field

     Computed dipole along edir(3) : 
        Dipole               -0.0441 Ry au,         -0.1122 Debye
        Dipole field         -0.0001 Ry au, 
 
        Potential amp.        0.0066 Ry
        Total length         49.3140 bohr
 

     total cpu time spent up to now is      168.3 secs

     total energy              =   -1640.38864648 Ry
     estimated scf accuracy    <      10.87153180 Ry

     iteration #  3     ecut=    62.47 Ry     beta= 0.15
     Davidson diagonalization with overlap
     ethr =  6.18E-03,  avg # of iterations =  1.4

     negative rho (up, down):  8.245E-01 0.000E+00
 
     Adding external electric field

     Computed dipole along edir(3) : 
        Dipole               -0.0454 Ry au,         -0.1154 Debye
        Dipole field         -0.0001 Ry au, 
 
        Potential amp.        0.0068 Ry
        Total length         49.3140 bohr
 

     total cpu time spent up to now is      223.1 secs

     total energy              =   -1640.86261943 Ry
     estimated scf accuracy    <       1.56120176 Ry

     iteration #  4     ecut=    62.47 Ry     beta= 0.15
     Davidson diagonalization with overlap
     ethr =  8.87E-04,  avg # of iterations =  2.0

     negative rho (up, down):  7.932E-01 0.000E+00
 
     Adding external electric field

     Computed dipole along edir(3) : 
        Dipole               -0.1010 Ry au,         -0.2566 Debye
        Dipole field         -0.0002 Ry au, 
 
        Potential amp.        0.0152 Ry
        Total length         49.3140 bohr
 

     total cpu time spent up to now is      282.4 secs

     total energy              =   -1640.74918069 Ry
     estimated scf accuracy    <       1.29834873 Ry

     iteration #  5     ecut=    62.47 Ry     beta= 0.15
     Davidson diagonalization with overlap
     ethr =  7.38E-04,  avg # of iterations =  4.6

     negative rho (up, down):  7.341E-01 0.000E+00
 
     Adding external electric field

     Computed dipole along edir(3) : 
        Dipole               -0.1213 Ry au,         -0.3083 Debye
        Dipole field         -0.0002 Ry au, 
 
        Potential amp.        0.0183 Ry
        Total length         49.3140 bohr
 

     total cpu time spent up to now is      346.0 secs

     total energy              =   -1640.78427478 Ry
     estimated scf accuracy    <       0.97284409 Ry

     iteration #  6     ecut=    62.47 Ry     beta= 0.15
     Davidson diagonalization with overlap
     ethr =  5.53E-04,  avg # of iterations =  8.4

     negative rho (up, down):  7.946E-01 0.000E+00
 
     Adding external electric field

     Computed dipole along edir(3) : 
        Dipole               -0.1013 Ry au,         -0.2574 Debye
        Dipole field         -0.0002 Ry au, 
 
        Potential amp.        0.0152 Ry
        Total length         49.3140 bohr
 

     total cpu time spent up to now is      421.8 secs

     total energy              =   -1640.83436500 Ry
     estimated scf accuracy    <       0.67515198 Ry

     iteration #  7     ecut=    62.47 Ry     beta= 0.15
     Davidson diagonalization with overlap
     ethr =  3.84E-04,  avg # of iterations =  2.0

     negative rho (up, down):  8.583E-01 0.000E+00
 
     Adding external electric field

     Computed dipole along edir(3) : 
        Dipole               -0.1341 Ry au,         -0.3408 Debye
        Dipole field         -0.0002 Ry au, 
 
        Potential amp.        0.0202 Ry
        Total length         49.3140 bohr
 

     total cpu time spent up to now is      479.6 secs

     total energy              =   -1640.83541417 Ry
     estimated scf accuracy    <       0.28068355 Ry

     iteration #  8     ecut=    62.47 Ry     beta= 0.15
     Davidson diagonalization with overlap
     ethr =  1.59E-04,  avg # of iterations =  9.0

     negative rho (up, down):  8.288E-01 0.000E+00
 
     Adding external electric field

     Computed dipole along edir(3) : 
        Dipole               -0.1707 Ry au,         -0.4340 Debye
        Dipole field         -0.0003 Ry au, 
 
        Potential amp.        0.0257 Ry
        Total length         49.3140 bohr
 

     total cpu time spent up to now is      560.0 secs

     total energy              =   -1640.79841641 Ry
     estimated scf accuracy    <       0.57330958 Ry

     iteration #  9     ecut=    62.47 Ry     beta= 0.15
     Davidson diagonalization with overlap
     ethr =  1.59E-04,  avg # of iterations =  2.0

     negative rho (up, down):  8.989E-01 0.000E+00
 
     Adding external electric field

     Computed dipole along edir(3) : 
        Dipole               -0.1380 Ry au,         -0.3507 Debye
        Dipole field         -0.0002 Ry au, 
 
        Potential amp.        0.0208 Ry
        Total length         49.3140 bohr
 

     total cpu time spent up to now is      618.1 secs

     total energy              =   -1640.85031266 Ry
     estimated scf accuracy    <       0.19845409 Ry

     iteration # 10     ecut=    62.47 Ry     beta= 0.15
     Davidson diagonalization with overlap
     ethr =  1.13E-04,  avg # of iterations =  2.3

     negative rho (up, down):  8.962E-01 0.000E+00
 
     Adding external electric field

     Computed dipole along edir(3) : 
        Dipole               -0.1803 Ry au,         -0.4583 Debye
        Dipole field         -0.0003 Ry au, 
 
        Potential amp.        0.0271 Ry
        Total length         49.3140 bohr
 

     total cpu time spent up to now is      678.6 secs

     total energy              =   -1640.83847831 Ry
     estimated scf accuracy    <       1.46561056 Ry

     iteration # 11     ecut=    62.47 Ry     beta= 0.15
     Davidson diagonalization with overlap
     ethr =  1.13E-04,  avg # of iterations =  1.0

     negative rho (up, down):  8.882E-01 0.000E+00
 
     Adding external electric field

     Computed dipole along edir(3) : 
        Dipole               -0.2007 Ry au,         -0.5101 Debye
        Dipole field         -0.0003 Ry au, 
 
        Potential amp.        0.0302 Ry
        Total length         49.3140 bohr
 

     total cpu time spent up to now is      732.4 secs

     total energy              =   -1640.80654050 Ry
     estimated scf accuracy    <       0.98993478 Ry

     iteration # 12     ecut=    62.47 Ry     beta= 0.15
     Davidson diagonalization with overlap
     ethr =  1.13E-04,  avg # of iterations =  1.0

     negative rho (up, down):  8.641E-01 0.000E+00
 
     Adding external electric field

     Computed dipole along edir(3) : 
        Dipole               -0.1727 Ry au,         -0.4388 Debye
        Dipole field         -0.0003 Ry au, 
 
        Potential amp.        0.0260 Ry
        Total length         49.3140 bohr
 

     total cpu time spent up to now is      785.9 secs

     total energy              =   -1640.78638168 Ry
     estimated scf accuracy    <       0.51649412 Ry

     iteration # 13     ecut=    62.47 Ry     beta= 0.15
     Davidson diagonalization with overlap
     ethr =  1.13E-04,  avg # of iterations =  1.5

     negative rho (up, down):  8.804E-01 0.000E+00
 
     Adding external electric field

     Computed dipole along edir(3) : 
        Dipole               -0.1491 Ry au,         -0.3790 Debye
        Dipole field         -0.0002 Ry au, 
 
        Potential amp.        0.0224 Ry
        Total length         49.3140 bohr
 

     total cpu time spent up to now is      841.5 secs

     total energy              =   -1640.77614084 Ry
     estimated scf accuracy    <       0.20394070 Ry

     iteration # 14     ecut=    62.47 Ry     beta= 0.15
     Davidson diagonalization with overlap
     ethr =  1.13E-04,  avg # of iterations =  2.9

     negative rho (up, down):  8.490E-01 0.000E+00
 
     Adding external electric field

     Computed dipole along edir(3) : 
        Dipole               -0.0213 Ry au,         -0.0540 Debye
        Dipole field         -0.0000 Ry au, 
 
        Potential amp.        0.0032 Ry
        Total length         49.3140 bohr
 

     total cpu time spent up to now is      901.4 secs

     total energy              =   -1640.79442342 Ry
     estimated scf accuracy    <       0.20966674 Ry

     iteration # 15     ecut=    62.47 Ry     beta= 0.15
     Davidson diagonalization with overlap
     ethr =  1.13E-04,  avg # of iterations =  1.1

     negative rho (up, down):  8.691E-01 0.000E+00
 
     Adding external electric field

     Computed dipole along edir(3) : 
        Dipole                0.1124 Ry au,          0.2857 Debye
        Dipole field          0.0002 Ry au, 
 
        Potential amp.       -0.0169 Ry
        Total length         49.3140 bohr
 

     total cpu time spent up to now is      955.7 secs

     total energy              =   -1640.77996766 Ry
     estimated scf accuracy    <       0.37663106 Ry

     iteration # 16     ecut=    62.47 Ry     beta= 0.15
     Davidson diagonalization with overlap
     ethr =  1.13E-04,  avg # of iterations =  1.8

     negative rho (up, down):  8.506E-01 0.000E+00
 
     Adding external electric field

     Computed dipole along edir(3) : 
        Dipole                0.1165 Ry au,          0.2960 Debye
        Dipole field          0.0002 Ry au, 
 
        Potential amp.       -0.0175 Ry
        Total length         49.3140 bohr
 

     total cpu time spent up to now is     1012.4 secs

     total energy              =   -1640.77640588 Ry
     estimated scf accuracy    <       0.16462343 Ry

     iteration # 17     ecut=    62.47 Ry     beta= 0.15
     Davidson diagonalization with overlap
     ethr =  9.35E-05,  avg # of iterations =  1.7

     negative rho (up, down):  8.176E-01 0.000E+00
 
     Adding external electric field

     Computed dipole along edir(3) : 
        Dipole                0.0937 Ry au,          0.2381 Debye
        Dipole field          0.0001 Ry au, 
 
        Potential amp.       -0.0141 Ry
        Total length         49.3140 bohr
 

     total cpu time spent up to now is     1068.9 secs

     total energy              =   -1640.78102860 Ry
     estimated scf accuracy    <       0.08840372 Ry

     iteration # 18     ecut=    62.47 Ry     beta= 0.15
     Davidson diagonalization with overlap
     c_bands:  1 eigenvalues not converged
     c_bands:  2 eigenvalues not converged
     ethr =  5.02E-05,  avg # of iterations =  3.0

     negative rho (up, down):  8.356E-01 0.000E+00
 
     Adding external electric field

     Computed dipole along edir(3) : 
        Dipole                0.0390 Ry au,          0.0991 Debye
        Dipole field          0.0001 Ry au, 
 
        Potential amp.       -0.0059 Ry
        Total length         49.3140 bohr
 

     total cpu time spent up to now is     1128.2 secs

     total energy              =   -1640.78049839 Ry
     estimated scf accuracy    <       0.04118017 Ry

     iteration # 19     ecut=    62.47 Ry     beta= 0.15
     Davidson diagonalization with overlap
     c_bands:  3 eigenvalues not converged
     c_bands:  1 eigenvalues not converged
     c_bands:  3 eigenvalues not converged
     c_bands:  2 eigenvalues not converged
     c_bands:  1 eigenvalues not converged
     c_bands:  1 eigenvalues not converged
     c_bands:  1 eigenvalues not converged
     c_bands:  1 eigenvalues not converged
     c_bands:  1 eigenvalues not converged
     c_bands:  1 eigenvalues not converged
     c_bands:  1 eigenvalues not converged
     c_bands:  4 eigenvalues not converged
     c_bands:  3 eigenvalues not converged
     c_bands:  1 eigenvalues not converged
     c_bands:  1 eigenvalues not converged
     c_bands:  2 eigenvalues not converged
     c_bands:  1 eigenvalues not converged
     c_bands:  1 eigenvalues not converged
     ethr =  2.34E-05,  avg # of iterations = 15.0

     negative rho (up, down):  8.420E-01 0.000E+00
 
     Adding external electric field

     Computed dipole along edir(3) : 
        Dipole                0.0981 Ry au,          0.2493 Debye
        Dipole field          0.0001 Ry au, 
 
        Potential amp.       -0.0148 Ry
        Total length         49.3140 bohr
 

     total cpu time spent up to now is     1223.4 secs

     total energy              =   -1640.77768145 Ry
     estimated scf accuracy    <       0.03227260 Ry

     iteration # 20     ecut=    62.47 Ry     beta= 0.15
     Davidson diagonalization with overlap
     c_bands:  1 eigenvalues not converged
     c_bands:  1 eigenvalues not converged
     c_bands:  1 eigenvalues not converged
     c_bands:  1 eigenvalues not converged
     ethr =  1.83E-05,  avg # of iterations =  7.2

     negative rho (up, down):  8.422E-01 0.000E+00
 
     Adding external electric field

     Computed dipole along edir(3) : 
        Dipole                0.0895 Ry au,          0.2275 Debye
        Dipole field          0.0001 Ry au, 
 
        Potential amp.       -0.0135 Ry
        Total length         49.3140 bohr
 

     total cpu time spent up to now is     1295.5 secs

     total energy              =   -1640.78082661 Ry
     estimated scf accuracy    <       0.00189723 Ry

     iteration # 21     ecut=    62.47 Ry     beta= 0.15
     Davidson diagonalization with overlap
     c_bands:  4 eigenvalues not converged
     c_bands:  4 eigenvalues not converged
     c_bands:  4 eigenvalues not converged
     c_bands:  3 eigenvalues not converged
     c_bands:  1 eigenvalues not converged
     c_bands:  5 eigenvalues not converged
     c_bands:  2 eigenvalues not converged
     c_bands:  3 eigenvalues not converged
     c_bands:  2 eigenvalues not converged
     c_bands:  4 eigenvalues not converged
     c_bands:  2 eigenvalues not converged
     c_bands:  2 eigenvalues not converged
     c_bands:  2 eigenvalues not converged
     c_bands:  2 eigenvalues not converged
     c_bands:  2 eigenvalues not converged
     c_bands:  1 eigenvalues not converged
     c_bands:  1 eigenvalues not converged
     c_bands:  1 eigenvalues not converged
     c_bands:  2 eigenvalues not converged
     c_bands:  1 eigenvalues not converged
     c_bands:  3 eigenvalues not converged
     c_bands:  1 eigenvalues not converged
     c_bands:  2 eigenvalues not converged
     c_bands:  3 eigenvalues not converged
     c_bands:  3 eigenvalues not converged
     c_bands:  1 eigenvalues not converged
     c_bands:  1 eigenvalues not converged
     c_bands:  3 eigenvalues not converged
     c_bands:  3 eigenvalues not converged
     c_bands:  3 eigenvalues not converged
     c_bands:  4 eigenvalues not converged
     c_bands:  2 eigenvalues not converged
     c_bands:  3 eigenvalues not converged
     c_bands:  4 eigenvalues not converged
     c_bands:  2 eigenvalues not converged
     c_bands:  5 eigenvalues not converged
     c_bands:  3 eigenvalues not converged
     c_bands:  4 eigenvalues not converged
     c_bands:  2 eigenvalues not converged
     ethr =  1.08E-06,  avg # of iterations = 20.9

     negative rho (up, down):  8.432E-01 0.000E+00
 
     Adding external electric field

     Computed dipole along edir(3) : 
        Dipole                0.0791 Ry au,          0.2010 Debye
        Dipole field          0.0001 Ry au, 
 
        Potential amp.       -0.0119 Ry
        Total length         49.3140 bohr
 

     total cpu time spent up to now is     1435.3 secs

     total energy              =   -1640.78132950 Ry
     estimated scf accuracy    <       0.00888702 Ry

     iteration # 22     ecut=    62.47 Ry     beta= 0.15
     Davidson diagonalization with overlap
     c_bands:  2 eigenvalues not converged
     c_bands:  1 eigenvalues not converged
     c_bands:  1 eigenvalues not converged
     c_bands:  1 eigenvalues not converged
     ethr =  1.08E-06,  avg # of iterations =  7.8

     negative rho (up, down):  8.457E-01 0.000E+00
 
     Adding external electric field

     Computed dipole along edir(3) : 
        Dipole                0.0306 Ry au,          0.0778 Debye
        Dipole field          0.0000 Ry au, 
 
        Potential amp.       -0.0046 Ry
        Total length         49.3140 bohr
 

     total cpu time spent up to now is     1502.5 secs

     total energy              =   -1640.78141564 Ry
     estimated scf accuracy    <       0.00320738 Ry

     iteration # 23     ecut=    62.47 Ry     beta= 0.15
     Davidson diagonalization with overlap
     c_bands:  2 eigenvalues not converged
     c_bands:  1 eigenvalues not converged
     c_bands:  1 eigenvalues not converged
     c_bands:  1 eigenvalues not converged
     c_bands:  1 eigenvalues not converged
     c_bands:  2 eigenvalues not converged
     c_bands:  3 eigenvalues not converged
     ethr =  1.08E-06,  avg # of iterations =  6.7

     negative rho (up, down):  8.487E-01 0.000E+00
 
     Adding external electric field

     Computed dipole along edir(3) : 
        Dipole                0.0287 Ry au,          0.0729 Debye
        Dipole field          0.0000 Ry au, 
 
        Potential amp.       -0.0043 Ry
        Total length         49.3140 bohr
 

     total cpu time spent up to now is     1572.6 secs

     total energy              =   -1640.78167794 Ry
     estimated scf accuracy    <       0.01344158 Ry

     iteration # 24     ecut=    62.47 Ry     beta= 0.15
     Davidson diagonalization with overlap
     ethr =  1.08E-06,  avg # of iterations =  1.4

     negative rho (up, down):  8.453E-01 0.000E+00
 
     Adding external electric field

     Computed dipole along edir(3) : 
        Dipole                0.0209 Ry au,          0.0532 Debye
        Dipole field          0.0000 Ry au, 
 
        Potential amp.       -0.0031 Ry
        Total length         49.3140 bohr
 

     total cpu time spent up to now is     1628.4 secs

     total energy              =   -1640.78116022 Ry
     estimated scf accuracy    <       0.00756181 Ry

     iteration # 25     ecut=    62.47 Ry     beta= 0.15
     Davidson diagonalization with overlap
     ethr =  1.08E-06,  avg # of iterations =  2.1

     negative rho (up, down):  8.418E-01 0.000E+00
 
     Adding external electric field

     Computed dipole along edir(3) : 
        Dipole                0.0162 Ry au,          0.0411 Debye
        Dipole field          0.0000 Ry au, 
 
        Potential amp.       -0.0024 Ry
        Total length         49.3140 bohr
 

     total cpu time spent up to now is     1688.2 secs

     total energy              =   -1640.78145855 Ry
     estimated scf accuracy    <       0.00119492 Ry

     iteration # 26     ecut=    62.47 Ry     beta= 0.15
     Davidson diagonalization with overlap
     ethr =  6.79E-07,  avg # of iterations =  1.2

     negative rho (up, down):  8.400E-01 0.000E+00
 
     Adding external electric field

     Computed dipole along edir(3) : 
        Dipole               -0.0036 Ry au,         -0.0092 Debye
        Dipole field         -0.0000 Ry au, 
 
        Potential amp.        0.0005 Ry
        Total length         49.3140 bohr
 

     total cpu time spent up to now is     1743.6 secs

     total energy              =   -1640.78147012 Ry
     estimated scf accuracy    <       0.00127033 Ry

     iteration # 27     ecut=    62.47 Ry     beta= 0.15
     Davidson diagonalization with overlap
     ethr =  6.79E-07,  avg # of iterations =  4.1

     negative rho (up, down):  8.381E-01 0.000E+00
 
     Adding external electric field

     Computed dipole along edir(3) : 
        Dipole               -0.0022 Ry au,         -0.0056 Debye
        Dipole field         -0.0000 Ry au, 
 
        Potential amp.        0.0003 Ry
        Total length         49.3140 bohr
 

     total cpu time spent up to now is     1807.5 secs

     total energy              =   -1640.78156392 Ry
     estimated scf accuracy    <       0.00016455 Ry

     iteration # 28     ecut=    62.47 Ry     beta= 0.15
     Davidson diagonalization with overlap
     ethr =  9.35E-08,  avg # of iterations =  6.0

     negative rho (up, down):  8.382E-01 0.000E+00
 
     Adding external electric field

     Computed dipole along edir(3) : 
        Dipole                0.0021 Ry au,          0.0054 Debye
        Dipole field          0.0000 Ry au, 
 
        Potential amp.       -0.0003 Ry
        Total length         49.3140 bohr
 

     total cpu time spent up to now is     1887.3 secs

     total energy              =   -1640.78157197 Ry
     estimated scf accuracy    <       0.00043367 Ry

     iteration # 29     ecut=    62.47 Ry     beta= 0.15
     Davidson diagonalization with overlap
     ethr =  9.35E-08,  avg # of iterations =  2.0

     negative rho (up, down):  8.387E-01 0.000E+00
 
     Adding external electric field

     Computed dipole along edir(3) : 
        Dipole                0.0019 Ry au,          0.0049 Debye
        Dipole field          0.0000 Ry au, 
 
        Potential amp.       -0.0003 Ry
        Total length         49.3140 bohr
 

     total cpu time spent up to now is     1947.4 secs

     total energy              =   -1640.78159746 Ry
     estimated scf accuracy    <       0.00010505 Ry

     iteration # 30     ecut=    62.47 Ry     beta= 0.15
     Davidson diagonalization with overlap
     ethr =  5.97E-08,  avg # of iterations =  1.0

     negative rho (up, down):  8.384E-01 0.000E+00
 
     Adding external electric field

     Computed dipole along edir(3) : 
        Dipole                0.0025 Ry au,          0.0063 Debye
        Dipole field          0.0000 Ry au, 
 
        Potential amp.       -0.0004 Ry
        Total length         49.3140 bohr
 

     total cpu time spent up to now is     2002.7 secs

     total energy              =   -1640.78157650 Ry
     estimated scf accuracy    <       0.00016299 Ry

     iteration # 31     ecut=    62.47 Ry     beta= 0.15
     Davidson diagonalization with overlap
     ethr =  5.97E-08,  avg # of iterations =  1.2

     negative rho (up, down):  8.383E-01 0.000E+00
 
     Adding external electric field

     Computed dipole along edir(3) : 
        Dipole                0.0020 Ry au,          0.0051 Debye
        Dipole field          0.0000 Ry au, 
 
        Potential amp.       -0.0003 Ry
        Total length         49.3140 bohr
 

     total cpu time spent up to now is     2057.0 secs

     total energy              =   -1640.78160394 Ry
     estimated scf accuracy    <       0.00012810 Ry

     iteration # 32     ecut=    62.47 Ry     beta= 0.15
     Davidson diagonalization with overlap
     ethr =  5.97E-08,  avg # of iterations =  2.8

     negative rho (up, down):  8.381E-01 0.000E+00
 
     Adding external electric field

     Computed dipole along edir(3) : 
        Dipole                0.0023 Ry au,          0.0058 Debye
        Dipole field          0.0000 Ry au, 
 
        Potential amp.       -0.0003 Ry
        Total length         49.3140 bohr
 

     total cpu time spent up to now is     2116.9 secs

     total energy              =   -1640.78160466 Ry
     estimated scf accuracy    <       0.00004963 Ry

     iteration # 33     ecut=    62.47 Ry     beta= 0.15
     Davidson diagonalization with overlap
     ethr =  2.82E-08,  avg # of iterations =  3.6

     negative rho (up, down):  8.373E-01 0.000E+00
 
     Adding external electric field

     Computed dipole along edir(3) : 
        Dipole                0.0066 Ry au,          0.0168 Debye
        Dipole field          0.0000 Ry au, 
 
        Potential amp.       -0.0010 Ry
        Total length         49.3140 bohr
 

     total cpu time spent up to now is     2178.3 secs

     total energy              =   -1640.78162047 Ry
     estimated scf accuracy    <       0.00002183 Ry

     iteration # 34     ecut=    62.47 Ry     beta= 0.15
     Davidson diagonalization with overlap
     ethr =  1.24E-08,  avg # of iterations =  5.6

     negative rho (up, down):  8.375E-01 0.000E+00
 
     Adding external electric field

     Computed dipole along edir(3) : 
        Dipole                0.0059 Ry au,          0.0151 Debye
        Dipole field          0.0000 Ry au, 
 
        Potential amp.       -0.0009 Ry
        Total length         49.3140 bohr
 

     total cpu time spent up to now is     2260.7 secs

     total energy              =   -1640.78162380 Ry
     estimated scf accuracy    <       0.00007633 Ry

     iteration # 35     ecut=    62.47 Ry     beta= 0.15
     Davidson diagonalization with overlap
     ethr =  1.24E-08,  avg # of iterations =  4.0

     negative rho (up, down):  8.378E-01 0.000E+00
 
     Adding external electric field

     Computed dipole along edir(3) : 
        Dipole                0.0049 Ry au,          0.0124 Debye
        Dipole field          0.0000 Ry au, 
 
        Potential amp.       -0.0007 Ry
        Total length         49.3140 bohr
 

     total cpu time spent up to now is     2326.0 secs

     total energy              =   -1640.78161905 Ry
     estimated scf accuracy    <       0.00002532 Ry

     iteration # 36     ecut=    62.47 Ry     beta= 0.15
     Davidson diagonalization with overlap
     ethr =  1.24E-08,  avg # of iterations =  5.0

     negative rho (up, down):  8.383E-01 0.000E+00
 
     Adding external electric field

     Computed dipole along edir(3) : 
        Dipole                0.0033 Ry au,          0.0084 Debye
        Dipole field          0.0000 Ry au, 
 
        Potential amp.       -0.0005 Ry
        Total length         49.3140 bohr
 

     total cpu time spent up to now is     2401.2 secs

     total energy              =   -1640.78164927 Ry
     estimated scf accuracy    <       0.00002055 Ry

     iteration # 37     ecut=    62.47 Ry     beta= 0.15
     Davidson diagonalization with overlap
     ethr =  1.17E-08,  avg # of iterations =  2.1

     negative rho (up, down):  8.384E-01 0.000E+00
 
     Adding external electric field

     Computed dipole along edir(3) : 
        Dipole                0.0042 Ry au,          0.0106 Debye
        Dipole field          0.0000 Ry au, 
 
        Potential amp.       -0.0006 Ry
        Total length         49.3140 bohr
 

     total cpu time spent up to now is     2461.1 secs

     total energy              =   -1640.78164726 Ry
     estimated scf accuracy    <       0.00002420 Ry

     iteration # 38     ecut=    62.47 Ry     beta= 0.15
     Davidson diagonalization with overlap
     ethr =  1.17E-08,  avg # of iterations =  4.8

     negative rho (up, down):  8.382E-01 0.000E+00
 
     Adding external electric field

     Computed dipole along edir(3) : 
        Dipole                0.0034 Ry au,          0.0086 Debye
        Dipole field          0.0000 Ry au, 
 
        Potential amp.       -0.0005 Ry
        Total length         49.3140 bohr
 

     total cpu time spent up to now is     2527.9 secs

     End of self-consistent calculation

          k = 0.0000 0.0000 0.0000 ( 68425 PWs)   bands (ev):

   -29.4207 -29.2702 -29.2579 -29.1106 -29.0258 -28.9996 -28.8953 -28.8495
   -28.7849 -28.7224 -28.7145 -28.6832 -28.6433 -28.6279 -28.6073 -28.5853
   -13.3081 -13.2850 -13.2401 -13.1396 -13.1359 -13.0726 -13.0406 -13.0137
   -13.0014 -12.9851 -12.8842 -12.8262 -12.7519 -12.7233 -12.6755 -12.6691
   -12.6079 -12.5676 -12.5524 -12.5418 -12.5229 -12.4557 -12.4388 -12.4190
   -12.3341 -12.3121 -12.3090 -12.2915 -12.2790 -12.2386 -12.1958 -12.1887
   -12.1624 -12.1358 -12.1331 -12.1237 -12.0754 -12.0368 -12.0101 -12.0047
   -11.9803 -11.9756 -11.9623 -11.9582 -11.9287 -11.8945 -11.8452 -11.8089
     1.0896   1.6784   2.2822   2.3574   2.3778   2.5268   2.5412   2.5850
     2.6122   2.6544   2.7026   2.7909   2.8646   2.9085   3.0388   3.1223
     3.1897   3.2778   3.5219   3.7566   3.9090   3.9791   4.1191   4.2303
     4.2457   4.3634   4.4399   4.5026   4.5948   4.6441   4.7146   4.7382
     4.8084   4.8447   4.8601   4.9165   4.9700   5.0181   5.0660   5.0995
     5.1595   5.2141   5.2265   5.2905   5.3291   5.3416   5.3765   5.3850
     5.3878   5.4025   5.4255   5.4324   5.4402   5.4486

          k = 0.0000 0.0000 0.0525 ( 68444 PWs)   bands (ev):

   -29.4207 -29.2696 -29.2586 -29.1106 -29.0258 -28.9995 -28.8952 -28.8493
   -28.7833 -28.7367 -28.7011 -28.6817 -28.6444 -28.6299 -28.6061 -28.5858
   -13.3003 -13.2783 -13.2404 -13.1581 -13.1227 -13.0727 -13.0529 -13.0157
   -12.9922 -12.9662 -12.9069 -12.8209 -12.7736 -12.7539 -12.6692 -12.6545
   -12.6230 -12.5702 -12.5485 -12.5387 -12.4825 -12.4554 -12.4444 -12.3999
   -12.3573 -12.3331 -12.3113 -12.2802 -12.2504 -12.2427 -12.2057 -12.1929
   -12.1449 -12.1331 -12.1288 -12.1176 -12.0659 -12.0363 -12.0345 -12.0031
   -11.9963 -11.9715 -11.9609 -11.9417 -11.9259 -11.8933 -11.8471 -11.8270
     1.1385   1.7185   2.0893   2.2957   2.4518   2.4770   2.5207   2.5467
     2.5734   2.6573   2.7422   2.7686   2.8750   2.9928   3.0260   3.1388
     3.2834   3.3328   3.5849   3.7361   3.9496   3.9842   4.1137   4.2283
     4.2472   4.3475   4.4361   4.4906   4.5940   4.6554   4.6712   4.7351
     4.7644   4.8151   4.8775   4.9533   4.9841   5.0357   5.0643   5.1041
     5.1469   5.1943   5.2762   5.2917   5.3176   5.3292   5.3456   5.3784
     5.3891   5.3989   5.4044   5.4326   5.4348   5.4644

          k = 0.0000 0.0000 0.1051 ( 68472 PWs)   bands (ev):

   -29.4207 -29.2682 -29.2601 -29.1107 -29.0258 -28.9993 -28.8949 -28.8491
   -28.7784 -28.7521 -28.6918 -28.6743 -28.6466 -28.6357 -28.6033 -28.5873
   -13.2861 -13.2593 -13.2395 -13.1791 -13.1198 -13.0701 -13.0558 -13.0189
   -12.9904 -12.9625 -12.9069 -12.8446 -12.8070 -12.7886 -12.6696 -12.6344
   -12.6061 -12.5743 -12.5335 -12.5202 -12.4895 -12.4595 -12.4548 -12.3778
   -12.3621 -12.3378 -12.3096 -12.2826 -12.2494 -12.2369 -12.1969 -12.1890
   -12.1329 -12.1220 -12.1129 -12.1002 -12.0666 -12.0426 -12.0387 -12.0272
   -12.0049 -11.9614 -11.9558 -11.9255 -11.9245 -11.8892 -11.8743 -11.8520
     1.2805   1.7800   1.8400   2.2399   2.3412   2.3780   2.4429   2.5819
     2.6038   2.6386   2.6621   2.7903   2.9513   3.0202   3.0991   3.1681
     3.4176   3.5151   3.6711   3.7442   3.9483   4.0049   4.1288   4.2226
     4.2744   4.2907   4.3863   4.4692   4.5416   4.5797   4.6493   4.7341
     4.7983   4.8384   4.8987   4.9261   5.0067   5.0321   5.0859   5.1225
     5.1610   5.2126   5.2472   5.2614   5.2828   5.3413   5.3641   5.3744
     5.3751   5.3945   5.4065   5.4087   5.4452   5.4727

          k = 0.0000 0.0000-0.1576 ( 68484 PWs)   bands (ev):

   -29.4207 -29.2671 -29.2612 -29.1107 -29.0258 -28.9992 -28.8948 -28.8490
   -28.7737 -28.7606 -28.6900 -28.6674 -28.6484 -28.6398 -28.6016 -28.5883
   -13.2807 -13.2454 -13.2355 -13.1929 -13.1196 -13.0676 -13.0508 -13.0306
   -12.9963 -12.9458 -12.9229 -12.8465 -12.8280 -12.7967 -12.6697 -12.6245
   -12.5802 -12.5760 -12.5312 -12.5285 -12.4916 -12.4756 -12.4545 -12.3759
   -12.3554 -12.3333 -12.3087 -12.2838 -12.2524 -12.2311 -12.1916 -12.1878
   -12.1327 -12.1113 -12.1021 -12.0804 -12.0785 -12.0641 -12.0294 -12.0267
   -11.9948 -11.9617 -11.9465 -11.9349 -11.9204 -11.9073 -11.8855 -11.8555
     1.4925   1.5138   1.9869   2.0544   2.3383   2.3864   2.3934   2.5601
     2.6061   2.6360   2.6455   2.7900   2.9636   3.0468   3.1554   3.1694
     3.4888   3.5922   3.7060   3.8100   3.9402   4.0291   4.0756   4.1976
     4.2579   4.2841   4.3652   4.4220   4.5474   4.5627   4.6555   4.7495
     4.8447   4.8591   4.8823   4.9132   4.9870   4.9959   5.0754   5.1226
     5.1698   5.2103   5.2403   5.2468   5.3024   5.3381   5.3661   5.3674
     5.4120   5.4144   5.4236   5.4339   5.4510   5.4617

          k = 0.0357 0.0619-0.0113 ( 68515 PWs)   bands (ev):

   -29.4180 -29.2670 -29.2551 -29.1069 -29.0235 -28.9971 -28.8921 -28.8465
   -28.7810 -28.7208 -28.7096 -28.6800 -28.6411 -28.6266 -28.6057 -28.5837
   -13.2962 -13.2729 -13.2339 -13.1341 -13.1256 -13.0634 -13.0349 -13.0080
   -12.9939 -12.9759 -12.8861 -12.8278 -12.7524 -12.7350 -12.7021 -12.6781
   -12.6305 -12.6024 -12.5784 -12.5593 -12.5062 -12.4682 -12.4552 -12.4230
   -12.3543 -12.3310 -12.3177 -12.3047 -12.2827 -12.2649 -12.2280 -12.1908
   -12.1763 -12.1633 -12.1508 -12.1328 -12.0854 -12.0643 -12.0236 -12.0102
   -12.0007 -11.9951 -11.9793 -11.9501 -11.9250 -11.9162 -11.8791 -11.8151
     1.1892   1.7720   2.3749   2.3996   2.5043   2.6164   2.6353   2.6698
     2.7006   2.7561   2.8077   2.8907   2.9494   3.0218   3.1385   3.2127
     3.2351   3.3248   3.5373   3.7635   3.8917   3.9428   4.0968   4.1923
     4.2217   4.3124   4.3959   4.4387   4.5664   4.5913   4.6575   4.6809
     4.7877   4.8116   4.8187   4.8584   4.8861   4.9444   4.9775   5.0023
     5.0293   5.0977   5.1170   5.1648   5.2274   5.2432   5.2752   5.3168
     5.3597   5.3770   5.3963   5.4121   5.4248   5.4652

          k = 0.0357 0.0619 0.0413 ( 68550 PWs)   bands (ev):

   -29.4180 -29.2666 -29.2555 -29.1069 -29.0235 -28.9971 -28.8920 -28.8464
   -28.7800 -28.7297 -28.7012 -28.6792 -28.6418 -28.6276 -28.6051 -28.5840
   -13.2920 -13.2692 -13.2341 -13.1451 -13.1175 -13.0640 -13.0425 -13.0098
   -12.9864 -12.9659 -12.8985 -12.8249 -12.7626 -12.7493 -12.7075 -12.6666
   -12.6367 -12.6043 -12.5805 -12.5492 -12.4909 -12.4681 -12.4503 -12.4165
   -12.3632 -12.3442 -12.3223 -12.3040 -12.2667 -12.2624 -12.2313 -12.1988
   -12.1732 -12.1593 -12.1412 -12.1282 -12.0829 -12.0632 -12.0354 -12.0228
   -11.9932 -11.9860 -11.9792 -11.9522 -11.9245 -11.9136 -11.8815 -11.8230
     1.2165   1.7945   2.2356   2.3854   2.5678   2.5936   2.6189   2.6333
     2.6560   2.7652   2.8447   2.8780   2.9536   3.0778   3.1250   3.2232
     3.2828   3.3619   3.5751   3.7576   3.9089   3.9538   4.0920   4.1948
     4.2143   4.3170   4.3835   4.4318   4.5482   4.6099   4.6448   4.6894
     4.7401   4.7637   4.8270   4.8706   4.9184   4.9433   4.9843   5.0065
     5.0340   5.0948   5.1314   5.1721   5.2216   5.2718   5.2849   5.3219
     5.3376   5.3778   5.3883   5.4048   5.4307   5.4663

          k = 0.0357 0.0619 0.0938 ( 68567 PWs)   bands (ev):

   -29.4179 -29.2653 -29.2569 -29.1070 -29.0235 -28.9970 -28.8918 -28.8462
   -28.7758 -28.7454 -28.6899 -28.6737 -28.6440 -28.6323 -28.6028 -28.5853
   -13.2790 -13.2532 -13.2335 -13.1658 -13.1123 -13.0630 -13.0491 -13.0100
   -12.9852 -12.9535 -12.9073 -12.8288 -12.8115 -12.7778 -12.7095 -12.6500
   -12.6250 -12.6055 -12.5701 -12.5386 -12.4907 -12.4615 -12.4536 -12.3862
   -12.3777 -12.3509 -12.3304 -12.3069 -12.2717 -12.2395 -12.2348 -12.1956
   -12.1703 -12.1506 -12.1247 -12.1052 -12.0779 -12.0647 -12.0492 -12.0383
   -12.0020 -11.9831 -11.9629 -11.9494 -11.9269 -11.9117 -11.8899 -11.8503
     1.3367   1.8890   1.9383   2.3692   2.4278   2.4828   2.5437   2.6701
     2.7118   2.7356   2.7736   2.8984   3.0471   3.1196   3.1839   3.2529
     3.4245   3.5156   3.6803   3.7606   3.9059   4.0061   4.0733   4.1836
     4.2403   4.2686   4.3724   4.4363   4.4563   4.5452   4.6045   4.6856
     4.7162   4.7796   4.8395   4.8648   4.9300   4.9755   5.0084   5.0372
     5.0471   5.1031   5.1446   5.1728   5.2013   5.2647   5.3042   5.3214
     5.3434   5.3612   5.3768   5.3998   5.4215   5.4504

          k = 0.0357 0.0619-0.1689 ( 68553 PWs)   bands (ev):

   -29.4179 -29.2640 -29.2582 -29.1070 -29.0235 -28.9969 -28.8916 -28.8460
   -28.7703 -28.7561 -28.6870 -28.6656 -28.6461 -28.6371 -28.6007 -28.5865
   -13.2718 -13.2376 -13.2282 -13.1830 -13.1122 -13.0588 -13.0465 -13.0210
   -12.9882 -12.9439 -12.9157 -12.8428 -12.8215 -12.7985 -12.7089 -12.6387
   -12.6055 -12.6001 -12.5740 -12.5248 -12.5129 -12.4722 -12.4550 -12.3819
   -12.3677 -12.3421 -12.3303 -12.3088 -12.2794 -12.2388 -12.2250 -12.1898
   -12.1700 -12.1493 -12.1076 -12.0937 -12.0770 -12.0671 -12.0534 -12.0310
   -12.0063 -11.9821 -11.9626 -11.9402 -11.9345 -11.9281 -11.8868 -11.8699
     1.5385   1.6481   2.0540   2.1623   2.4281   2.4646   2.4903   2.6614
     2.7027   2.7280   2.7523   2.8993   3.0739   3.1482   3.2556   3.2719
     3.5355   3.6145   3.7371   3.8221   3.9194   3.9929   4.0518   4.1370
     4.2206   4.2721   4.3335   4.3950   4.4409   4.5071   4.6005   4.7004
     4.7395   4.8054   4.8371   4.8733   4.8929   4.9434   5.0141   5.0348
     5.0876   5.1310   5.1377   5.1645   5.1856   5.2710   5.3032   5.3174
     5.3379   5.3659   5.3906   5.4117   5.4322   5.4535

          k = 0.0357 0.0619-0.1164 ( 68548 PWs)   bands (ev):

   -29.4179 -29.2647 -29.2576 -29.1070 -29.0235 -28.9969 -28.8917 -28.8461
   -28.7733 -28.7510 -28.6880 -28.6696 -28.6450 -28.6348 -28.6016 -28.5859
   -13.2746 -13.2444 -13.2321 -13.1745 -13.1122 -13.0610 -13.0487 -13.0143
   -12.9835 -12.9580 -12.8991 -12.8504 -12.8073 -12.7932 -12.7092 -12.6444
   -12.6129 -12.6056 -12.5697 -12.5332 -12.5000 -12.4650 -12.4563 -12.3839
   -12.3694 -12.3489 -12.3310 -12.3080 -12.2755 -12.2385 -12.2306 -12.1917
   -12.1700 -12.1489 -12.1175 -12.0960 -12.0758 -12.0683 -12.0537 -12.0327
   -12.0086 -11.9824 -11.9597 -11.9454 -11.9293 -11.9192 -11.8898 -11.8611
     1.4142   1.8048   1.9592   2.2799   2.4398   2.4508   2.5175   2.6820
     2.6937   2.7314   2.7602   2.9002   3.0652   3.1356   3.2183   3.2671
     3.4780   3.5973   3.6921   3.7874   3.9144   3.9836   4.1037   4.1539
     4.2311   4.2622   4.3510   4.4110   4.4468   4.5203   4.6010   4.6960
     4.7199   4.7989   4.8386   4.8536   4.9385   4.9648   5.0089   5.0310
     5.0625   5.1211   5.1417   5.1707   5.1865   5.2743   5.3032   5.3210
     5.3319   5.3574   5.3925   5.4083   5.4219   5.4487

          k = 0.0357 0.0619-0.0638 ( 68561 PWs)   bands (ev):

   -29.4179 -29.2661 -29.2560 -29.1070 -29.0235 -28.9970 -28.8919 -28.8463
   -28.7786 -28.7367 -28.6953 -28.6777 -28.6426 -28.6292 -28.6043 -28.5845
   -13.2866 -13.2637 -13.2341 -13.1538 -13.1139 -13.0642 -13.0470 -13.0093
   -12.9861 -12.9531 -12.9105 -12.8204 -12.7871 -12.7601 -12.7094 -12.6579
   -12.6368 -12.6049 -12.5762 -12.5444 -12.4850 -12.4659 -12.4477 -12.4036
   -12.3754 -12.3483 -12.3261 -12.3051 -12.2678 -12.2495 -12.2340 -12.2004
   -12.1716 -12.1556 -12.1335 -12.1197 -12.0804 -12.0628 -12.0422 -12.0336
   -11.9928 -11.9850 -11.9725 -11.9523 -11.9250 -11.9110 -11.8851 -11.8336
     1.2571   1.8278   2.1073   2.3938   2.5031   2.5425   2.5894   2.6510
     2.6812   2.7597   2.8177   2.8839   2.9992   3.1022   3.1383   3.2333
     3.3434   3.4132   3.6224   3.7547   3.9067   3.9894   4.0760   4.1861
     4.2238   4.3025   4.3887   4.4343   4.5152   4.5907   4.6233   4.6869
     4.7199   4.7566   4.8326   4.8776   4.9265   4.9547   4.9894   5.0189
     5.0465   5.0920   5.1409   5.1727   5.2257   5.2827   5.2956   5.3018
     5.3441   5.3707   5.3776   5.4004   5.4274   5.4548

          k = 0.0714 0.1237-0.0225 ( 68611 PWs)   bands (ev):

   -29.4101 -29.2578 -29.2474 -29.0964 -29.0172 -28.9904 -28.8831 -28.8382
   -28.7695 -28.7145 -28.6975 -28.6709 -28.6350 -28.6231 -28.6017 -28.5792
   -13.2637 -13.2383 -13.2175 -13.1166 -13.1018 -13.0400 -13.0227 -12.9924
   -12.9749 -12.9506 -12.8934 -12.8513 -12.8060 -12.7532 -12.7424 -12.7157
   -12.7001 -12.6789 -12.6302 -12.5874 -12.5228 -12.4995 -12.4834 -12.4505
   -12.4231 -12.3710 -12.3545 -12.3464 -12.3053 -12.3025 -12.2739 -12.2533
   -12.2247 -12.2168 -12.1799 -12.1616 -12.1365 -12.1037 -12.0768 -12.0465
   -12.0288 -12.0176 -11.9961 -11.9910 -11.9587 -11.9383 -11.9238 -11.8355
     1.4698   2.0287   2.5474   2.6304   2.7631   2.8317   2.8586   2.8808
     2.9134   3.0224   3.0697   3.1292   3.1804   3.2821   3.3600   3.3805
     3.4300   3.4867   3.6461   3.7506   3.8010   3.9036   4.0159   4.0761
     4.1577   4.1913   4.2278   4.2936   4.3981   4.4818   4.5217   4.5674
     4.6092   4.6555   4.6610   4.7265   4.7588   4.8114   4.8465   4.9052
     4.9661   4.9855   5.0292   5.0610   5.0884   5.1504   5.1944   5.2463
     5.2870   5.2979   5.3306   5.3542   5.3762   5.4098

          k = 0.0714 0.1237 0.0300 ( 68608 PWs)   bands (ev):

   -29.4101 -29.2577 -29.2474 -29.0964 -29.0172 -28.9904 -28.8831 -28.8382
   -28.7693 -28.7166 -28.6955 -28.6708 -28.6352 -28.6232 -28.6016 -28.5793
   -13.2629 -13.2375 -13.2175 -13.1189 -13.1003 -13.0405 -13.0236 -12.9929
   -12.9733 -12.9487 -12.8953 -12.8507 -12.8057 -12.7547 -12.7459 -12.7173
   -12.6990 -12.6803 -12.6279 -12.5861 -12.5222 -12.4982 -12.4823 -12.4501
   -12.4226 -12.3730 -12.3554 -12.3471 -12.3060 -12.3028 -12.2733 -12.2542
   -12.2229 -12.2169 -12.1772 -12.1611 -12.1357 -12.1037 -12.0775 -12.0471
   -12.0312 -12.0170 -11.9939 -11.9908 -11.9590 -11.9395 -11.9229 -11.8370
     1.4761   2.0338   2.5076   2.6316   2.7840   2.8269   2.8441   2.8789
     2.8984   3.0295   3.0845   3.1223   3.1865   3.2894   3.3571   3.3883
     3.4328   3.5005   3.6494   3.7508   3.8032   3.9083   4.0146   4.0790
     4.1535   4.1977   4.2300   4.2891   4.3990   4.4727   4.5200   4.5679
     4.6075   4.6494   4.6567   4.7221   4.7565   4.8220   4.8495   4.9120
     4.9598   4.9886   5.0286   5.0601   5.0911   5.1531   5.1943   5.2434
     5.2807   5.2957   5.3300   5.3559   5.3768   5.4066

          k = 0.0714 0.1237 0.0826 ( 68620 PWs)   bands (ev):

   -29.4101 -29.2567 -29.2485 -29.0965 -29.0172 -28.9903 -28.8829 -28.8380
   -28.7658 -28.7316 -28.6832 -28.6673 -28.6376 -28.6258 -28.6003 -28.5802
   -13.2541 -13.2264 -13.2165 -13.1379 -13.0937 -13.0435 -13.0298 -12.9912
   -12.9695 -12.9386 -12.8994 -12.8418 -12.8152 -12.7952 -12.7631 -12.7204
   -12.6984 -12.6711 -12.6069 -12.5857 -12.5221 -12.4919 -12.4686 -12.4450
   -12.4106 -12.3891 -12.3636 -12.3522 -12.3205 -12.2993 -12.2659 -12.2565
   -12.2243 -12.2009 -12.1663 -12.1486 -12.1207 -12.1027 -12.0827 -12.0625
   -12.0430 -12.0129 -11.9925 -11.9784 -11.9595 -11.9473 -11.9162 -11.8572
     1.5688   2.1088   2.2189   2.6261   2.6635   2.7237   2.7918   2.9060
     2.9504   2.9823   3.0712   3.1707   3.2974   3.3469   3.3887   3.4366
     3.5058   3.6086   3.7225   3.7446   3.8470   3.9488   4.0113   4.0636
     4.1337   4.2109   4.2543   4.3115   4.3420   4.4231   4.4781   4.5265
     4.5879   4.6049   4.6754   4.7044   4.7667   4.8330   4.8819   4.9204
     4.9573   4.9920   5.0256   5.0694   5.1133   5.1490   5.1946   5.2213
     5.2672   5.2939   5.3240   5.3485   5.3618   5.4007

          k = 0.0714 0.1237-0.1802 ( 68652 PWs)   bands (ev):

   -29.4101 -29.2554 -29.2499 -29.0965 -29.0172 -28.9902 -28.8828 -28.8379
   -28.7604 -28.7433 -28.6785 -28.6602 -28.6400 -28.6300 -28.5985 -28.5813
   -13.2473 -13.2186 -13.2060 -13.1561 -13.0928 -13.0393 -13.0328 -12.9958
   -12.9682 -12.9364 -12.9020 -12.8362 -12.8313 -12.8015 -12.7895 -12.7125
   -12.7007 -12.6586 -12.5998 -12.5710 -12.5340 -12.5049 -12.4706 -12.4384
   -12.3983 -12.3776 -12.3669 -12.3540 -12.3338 -12.3008 -12.2616 -12.2555
   -12.2200 -12.1986 -12.1533 -12.1364 -12.1245 -12.0931 -12.0818 -12.0637
   -12.0528 -12.0182 -11.9941 -11.9796 -11.9501 -11.9470 -11.9084 -11.8847
     1.7403   1.9411   2.2512   2.4232   2.6412   2.7031   2.7413   2.8930
     2.9475   2.9743   3.0653   3.1715   3.3494   3.4000   3.4651   3.5164
     3.5812   3.6654   3.7497   3.8522   3.8858   3.9297   4.0306   4.0429
     4.1015   4.1921   4.2126   4.2800   4.3559   4.4052   4.4698   4.4800
     4.5939   4.6087   4.6562   4.6962   4.7601   4.8277   4.8659   4.9106
     4.9676   4.9892   5.0302   5.0745   5.1424   5.1795   5.2026   5.2289
     5.2566   5.2890   5.3144   5.3359   5.3585   5.3955

          k = 0.0714 0.1237-0.1276 ( 68652 PWs)   bands (ev):

   -29.4101 -29.2555 -29.2497 -29.0965 -29.0172 -28.9902 -28.8828 -28.8379
   -28.7611 -28.7421 -28.6788 -28.6610 -28.6397 -28.6295 -28.5987 -28.5812
   -13.2478 -13.2190 -13.2079 -13.1540 -13.0928 -13.0402 -13.0323 -12.9948
   -12.9676 -12.9399 -12.8968 -12.8391 -12.8324 -12.7983 -12.7877 -12.7134
   -12.7005 -12.6596 -12.5989 -12.5757 -12.5309 -12.5028 -12.4707 -12.4388
   -12.3983 -12.3807 -12.3675 -12.3541 -12.3311 -12.3009 -12.2619 -12.2559
   -12.2206 -12.1979 -12.1563 -12.1367 -12.1227 -12.0937 -12.0834 -12.0639
   -12.0519 -12.0174 -11.9936 -11.9793 -11.9512 -11.9474 -11.9099 -11.8812
     1.7115   1.9779   2.2284   2.4522   2.6449   2.7005   2.7456   2.9009
     2.9420   2.9760   3.0659   3.1723   3.3457   3.3985   3.4601   3.4981
     3.5734   3.6774   3.7314   3.8426   3.8836   3.9280   4.0312   4.0537
     4.1013   4.1907   4.2157   4.2882   4.3565   4.4027   4.4711   4.4821
     4.5960   4.6047   4.6573   4.7019   4.7620   4.8303   4.8620   4.9082
     4.9708   4.9902   5.0279   5.0753   5.1418   5.1728   5.2012   5.2280
     5.2544   5.2906   5.3165   5.3383   5.3614   5.3921

          k = 0.0714 0.1237-0.0751 ( 68624 PWs)   bands (ev):

   -29.4101 -29.2568 -29.2483 -29.0965 -29.0172 -28.9903 -28.8829 -28.8381
   -28.7665 -28.7296 -28.6845 -28.6681 -28.6372 -28.6253 -28.6005 -28.5800
   -13.2555 -13.2284 -13.2168 -13.1350 -13.0941 -13.0434 -13.0292 -12.9915
   -12.9698 -12.9375 -12.9018 -12.8434 -12.8095 -12.7926 -12.7596 -12.7211
   -12.6980 -12.6735 -12.6103 -12.5848 -12.5216 -12.4921 -12.4687 -12.4468
   -12.4132 -12.3879 -12.3622 -12.3515 -12.3192 -12.2991 -12.2669 -12.2564
   -12.2243 -12.2031 -12.1667 -12.1513 -12.1227 -12.1041 -12.0813 -12.0607
   -12.0416 -12.0128 -11.9927 -11.9791 -11.9602 -11.9466 -11.9171 -11.8534
     1.5504   2.0943   2.2597   2.6382   2.6785   2.7369   2.8028   2.9012
     2.9384   2.9976   3.0722   3.1663   3.2839   3.3316   3.3803   3.4317
     3.4922   3.5919   3.7111   3.7420   3.8387   3.9474   4.0101   4.0662
     4.1339   4.2186   4.2535   4.3018   4.3539   4.4252   4.4899   4.5308
     4.5890   4.6104   4.6728   4.7024   4.7663   4.8354   4.8850   4.9152
     4.9582   4.9950   5.0250   5.0663   5.1100   5.1495   5.1912   5.2239
     5.2687   5.2929   5.3229   5.3516   5.3654   5.4014

          k = 0.1071 0.1856-0.0338 ( 68653 PWs)   bands (ev):

   -29.3988 -29.2444 -29.2360 -29.0810 -29.0083 -28.9806 -28.8701 -28.8263
   -28.7520 -28.7034 -28.6814 -28.6576 -28.6270 -28.6179 -28.5970 -28.5724
   -13.2207 -13.1977 -13.1874 -13.0991 -13.0760 -13.0280 -13.0194 -12.9738
   -12.9669 -12.9352 -12.9192 -12.9095 -12.8789 -12.8305 -12.8065 -12.7768
   -12.7616 -12.7190 -12.6782 -12.6461 -12.6127 -12.5391 -12.5239 -12.4963
   -12.4857 -12.4548 -12.4153 -12.3957 -12.3646 -12.3389 -12.3274 -12.3131
   -12.2908 -12.2713 -12.2366 -12.2133 -12.1656 -12.1431 -12.1283 -12.1072
   -12.0802 -12.0487 -12.0277 -12.0096 -12.0067 -11.9548 -11.9419 -11.8697
     1.8797   2.3722   2.7025   2.9077   2.9695   3.0059   3.0207   3.0738
     3.1353   3.1944   3.2489   3.3140   3.4077   3.4562   3.5274   3.5659
     3.6555   3.7156   3.7731   3.8145   3.8906   3.9187   3.9375   4.0049
     4.0281   4.1177   4.1655   4.2083   4.2506   4.3332   4.3570   4.4262
     4.4569   4.4958   4.5699   4.6259   4.6704   4.7810   4.8109   4.8709
     4.9149   4.9443   4.9810   5.0078   5.0410   5.1020   5.1251   5.1718
     5.1968   5.2412   5.3012   5.3269   5.3460   5.3908

          k = 0.1071 0.1856 0.0188 ( 68646 PWs)   bands (ev):

   -29.3988 -29.2446 -29.2359 -29.0809 -29.0083 -28.9806 -28.8701 -28.8263
   -28.7525 -28.6999 -28.6846 -28.6579 -28.6264 -28.6180 -28.5970 -28.5723
   -13.2213 -13.1976 -13.1884 -13.0964 -13.0768 -13.0270 -13.0202 -12.9739
   -12.9682 -12.9352 -12.9193 -12.9080 -12.8827 -12.8291 -12.8073 -12.7776
   -12.7495 -12.7220 -12.6823 -12.6486 -12.6150 -12.5294 -12.5215 -12.4995
   -12.4925 -12.4560 -12.4119 -12.3961 -12.3666 -12.3329 -12.3247 -12.3142
   -12.2908 -12.2791 -12.2355 -12.2131 -12.1646 -12.1450 -12.1270 -12.1025
   -12.0833 -12.0497 -12.0253 -12.0145 -12.0076 -11.9521 -11.9437 -11.8675
     1.8696   2.3648   2.7662   2.8992   2.9391   3.0224   3.0436   3.0770
     3.1237   3.1866   3.2560   3.3074   3.3892   3.4481   3.5247   3.5558
     3.6707   3.7240   3.7603   3.8114   3.8913   3.9108   3.9307   3.9994
     4.0210   4.1221   4.1548   4.2058   4.2646   4.3250   4.3557   4.4265
     4.4534   4.5038   4.5664   4.6280   4.6676   4.7937   4.8215   4.8720
     4.9229   4.9592   4.9791   5.0078   5.0441   5.1004   5.1161   5.1734
     5.1876   5.2358   5.2945   5.3290   5.3419   5.3956

          k = 0.1071 0.1856 0.0713 ( 68665 PWs)   bands (ev):

   -29.3988 -29.2439 -29.2366 -29.0810 -29.0083 -28.9806 -28.8700 -28.8262
   -28.7499 -28.7130 -28.6731 -28.6560 -28.6290 -28.6181 -28.5969 -28.5728
   -13.2182 -13.1981 -13.1831 -13.1091 -13.0738 -13.0301 -13.0173 -12.9748
   -12.9611 -12.9331 -12.9244 -12.9063 -12.8690 -12.8367 -12.8073 -12.7881
   -12.7720 -12.7205 -12.6631 -12.6428 -12.6013 -12.5587 -12.5313 -12.4973
   -12.4638 -12.4536 -12.4246 -12.3967 -12.3628 -12.3474 -12.3337 -12.3097
   -12.2909 -12.2558 -12.2351 -12.2113 -12.1711 -12.1434 -12.1286 -12.1190
   -12.0740 -12.0479 -12.0285 -12.0047 -11.9922 -11.9615 -11.9389 -11.8803
     1.9298   2.4076   2.5353   2.8570   2.9416   2.9733   3.0385   3.0996
     3.1525   3.1867   3.2529   3.3549   3.4576   3.4724   3.5505   3.5959
     3.6050   3.7154   3.7910   3.8330   3.8927   3.9218   3.9793   4.0175
     4.0688   4.1269   4.1870   4.2062   4.2396   4.3330   4.3719   4.4233
     4.4528   4.4920   4.5719   4.6218   4.6666   4.7181   4.7793   4.8383
     4.8931   4.9223   4.9904   5.0124   5.0443   5.1030   5.1381   5.1645
     5.2320   5.2625   5.3095   5.3248   5.3524   5.3704

          k = 0.1071 0.1856-0.1914 ( 68704 PWs)   bands (ev):

   -29.3988 -29.2429 -29.2377 -29.0810 -29.0083 -28.9805 -28.8699 -28.8261
   -28.7452 -28.7243 -28.6666 -28.6514 -28.6316 -28.6203 -28.5962 -28.5735
   -13.2148 -13.1984 -13.1752 -13.1229 -13.0721 -13.0307 -13.0157 -12.9767
   -12.9509 -12.9346 -12.9258 -12.9034 -12.8698 -12.8374 -12.8200 -12.7887
   -12.7768 -12.7209 -12.6522 -12.6410 -12.5943 -12.5627 -12.5301 -12.5103
   -12.4791 -12.4397 -12.4170 -12.3893 -12.3755 -12.3538 -12.3288 -12.3167
   -12.2901 -12.2381 -12.2230 -12.2030 -12.1879 -12.1600 -12.1360 -12.1060
   -12.0818 -12.0492 -12.0172 -12.0013 -11.9681 -11.9659 -11.9365 -11.9037
     2.0559   2.3008   2.5032   2.6991   2.9016   2.9816   3.0211   3.1008
     3.1627   3.2425   3.2609   3.4129   3.4596   3.4953   3.5414   3.5838
     3.6385   3.7619   3.8007   3.8546   3.9071   3.9404   3.9798   4.0356
     4.1110   4.1874   4.1962   4.2380   4.2591   4.3261   4.3811   4.4177
     4.4318   4.5017   4.5522   4.5820   4.6323   4.6710   4.7391   4.7885
     4.8748   4.9161   4.9765   5.0550   5.0852   5.0992   5.1363   5.1670
     5.2312   5.2660   5.2994   5.3150   5.3569   5.3791

          k = 0.1071 0.1856-0.1389 ( 68727 PWs)   bands (ev):

   -29.3988 -29.2427 -29.2379 -29.0810 -29.0083 -28.9805 -28.8699 -28.8261
   -28.7440 -28.7263 -28.6659 -28.6503 -28.6321 -28.6208 -28.5960 -28.5736
   -13.2143 -13.1984 -13.1737 -13.1252 -13.0719 -13.0306 -13.0155 -12.9769
   -12.9490 -12.9340 -12.9243 -12.9092 -12.8672 -12.8371 -12.8216 -12.7882
   -12.7784 -12.7201 -12.6542 -12.6381 -12.5931 -12.5621 -12.5276 -12.5152
   -12.4834 -12.4404 -12.4083 -12.3866 -12.3790 -12.3598 -12.3269 -12.3180
   -12.2888 -12.2335 -12.2213 -12.2010 -12.1925 -12.1640 -12.1368 -12.1019
   -12.0852 -12.0498 -12.0140 -12.0015 -11.9665 -11.9635 -11.9343 -11.9103
     2.1024   2.2411   2.5337   2.6584   2.8952   2.9899   3.0142   3.0908
     3.1729   3.2532   3.2592   3.4261   3.4534   3.4965   3.5335   3.5899
     3.6365   3.7836   3.8075   3.8524   3.9042   3.9357   3.9851   4.0415
     4.1112   4.1947   4.2055   4.2444   4.2638   4.3324   4.3764   4.4097
     4.4364   4.4966   4.5416   4.5821   4.6265   4.6577   4.7470   4.7825
     4.8638   4.9097   4.9831   5.0671   5.0898   5.1036   5.1312   5.1683
     5.2239   5.2551   5.3030   5.3169   5.3477   5.3791

          k = 0.1071 0.1856-0.0863 ( 68660 PWs)   bands (ev):

   -29.3988 -29.2436 -29.2369 -29.0810 -29.0083 -28.9805 -28.8700 -28.8262
   -28.7486 -28.7166 -28.6705 -28.6549 -28.6299 -28.6186 -28.5967 -28.5730
   -13.2171 -13.1983 -13.1808 -13.1134 -13.0732 -13.0306 -13.0167 -12.9754
   -12.9583 -12.9332 -12.9258 -12.9031 -12.8683 -12.8386 -12.8112 -12.7905
   -12.7722 -12.7216 -12.6565 -12.6441 -12.5975 -12.5623 -12.5331 -12.4994
   -12.4644 -12.4481 -12.4275 -12.3956 -12.3665 -12.3455 -12.3350 -12.3102
   -12.2918 -12.2515 -12.2309 -12.2097 -12.1751 -12.1462 -12.1320 -12.1168
   -12.0744 -12.0482 -12.0262 -12.0033 -11.9848 -11.9636 -11.9384 -11.8863
     1.9594   2.4241   2.4728   2.8136   2.9294   2.9690   3.0359   3.1213
     3.1406   3.1982   3.2588   3.3730   3.4664   3.4796   3.5574   3.5847
     3.6164   3.7217   3.7879   3.8498   3.8944   3.9287   3.9791   4.0268
     4.0877   4.1433   4.1814   4.2155   4.2457   4.3275   4.3807   4.4185
     4.4446   4.4999   4.5706   4.6108   4.6662   4.6881   4.7656   4.8165
     4.8961   4.9193   4.9806   5.0222   5.0551   5.1035   5.1380   5.1646
     5.2393   5.2729   5.2995   5.3226   5.3558   5.3693

          k = 0.1429 0.2474-0.0450 ( 68693 PWs)   bands (ev):

   -29.3862 -29.2297 -29.2231 -29.0632 -28.9988 -28.9698 -28.8557 -28.8132
   -28.7310 -28.6892 -28.6642 -28.6424 -28.6202 -28.6113 -28.5936 -28.5643
   -13.1994 -13.1761 -13.1550 -13.1107 -13.1094 -13.0793 -13.0339 -13.0073
   -12.9968 -12.9628 -12.9544 -12.9246 -12.9169 -12.8915 -12.8793 -12.8158
   -12.7983 -12.7510 -12.7324 -12.7147 -12.6741 -12.6057 -12.5826 -12.5682
   -12.5477 -12.5166 -12.4750 -12.4521 -12.4141 -12.3904 -12.3857 -12.3608
   -12.3347 -12.3160 -12.2644 -12.2530 -12.2105 -12.1835 -12.1572 -12.1443
   -12.1017 -12.0675 -12.0508 -12.0342 -12.0287 -11.9827 -11.9705 -11.9126
     2.3311   2.6368   2.7682   2.8536   2.9063   3.0213   3.0469   3.1150
     3.1471   3.1555   3.2931   3.3685   3.4086   3.4693   3.5509   3.6170
     3.6665   3.6846   3.7620   3.8301   3.8739   3.9268   3.9761   4.0116
     4.0236   4.1131   4.1570   4.1997   4.2797   4.4254   4.4664   4.5212
     4.5296   4.5883   4.6545   4.6917   4.7569   4.7956   4.8473   4.8712
     4.8998   4.9306   4.9814   5.0149   5.0480   5.1030   5.1949   5.2134
     5.2454   5.2870   5.3236   5.3454   5.3774   5.3916

          k = 0.1429 0.2474 0.0075 ( 68703 PWs)   bands (ev):

   -29.3862 -29.2299 -29.2230 -29.0632 -28.9989 -28.9698 -28.8557 -28.8132
   -28.7319 -28.6833 -28.6697 -28.6429 -28.6188 -28.6122 -28.5932 -28.5641
   -13.1999 -13.1744 -13.1500 -13.1116 -13.1066 -13.0849 -13.0361 -13.0073
   -12.9970 -12.9609 -12.9514 -12.9215 -12.9189 -12.8998 -12.8819 -12.8115
   -12.7955 -12.7724 -12.7277 -12.7138 -12.6687 -12.5946 -12.5718 -12.5606
   -12.5577 -12.5300 -12.4691 -12.4565 -12.4192 -12.3936 -12.3793 -12.3562
   -12.3366 -12.3274 -12.2626 -12.2434 -12.2095 -12.1686 -12.1550 -12.1355
   -12.1219 -12.0684 -12.0489 -12.0417 -12.0346 -11.9779 -11.9731 -11.9095
     2.3167   2.6346   2.8098   2.8656   2.9418   2.9652   3.0635   3.0989
     3.1215   3.1832   3.2809   3.3640   3.4235   3.4590   3.5260   3.6064
     3.6692   3.6778   3.7462   3.8386   3.9143   3.9789   4.0025   4.0232
     4.0448   4.0711   4.0904   4.1464   4.2660   4.4346   4.4782   4.5438
     4.5551   4.5885   4.6442   4.6970   4.7710   4.8074   4.8401   4.8753
     4.8939   4.9371   4.9697   4.9967   5.0437   5.1014   5.1955   5.2107
     5.2452   5.2929   5.3232   5.3452   5.3791   5.3922

          k = 0.1429 0.2474 0.0601 ( 68693 PWs)   bands (ev):

   -29.3862 -29.2296 -29.2233 -29.0632 -28.9988 -28.9698 -28.8557 -28.8131
   -28.7303 -28.6923 -28.6615 -28.6421 -28.6209 -28.6109 -28.5939 -28.5643
   -13.1991 -13.1773 -13.1584 -13.1109 -13.1093 -13.0765 -13.0330 -13.0093
   -12.9941 -12.9629 -12.9571 -12.9260 -12.9155 -12.8868 -12.8783 -12.8184
   -12.7965 -12.7403 -12.7356 -12.7140 -12.6778 -12.6123 -12.5890 -12.5707
   -12.5457 -12.5085 -12.4784 -12.4494 -12.4110 -12.3914 -12.3873 -12.3605
   -12.3346 -12.3094 -12.2701 -12.2553 -12.2131 -12.1901 -12.1572 -12.1461
   -12.0983 -12.0646 -12.0505 -12.0326 -12.0219 -11.9848 -11.9700 -11.9150
     2.3424   2.6368   2.7411   2.8402   2.9076   3.0286   3.0494   3.1246
     3.1426   3.1654   3.2977   3.3495   3.4198   3.4803   3.5597   3.6202
     3.6677   3.6861   3.7594   3.8253   3.8547   3.9051   3.9788   4.0084
     4.0300   4.1236   4.1845   4.2157   4.2940   4.4097   4.4649   4.5051
     4.5202   4.5892   4.6581   4.6845   4.7491   4.7938   4.8427   4.8714
     4.9077   4.9336   4.9710   5.0298   5.0523   5.1073   5.1879   5.2189
     5.2469   5.2807   5.3249   5.3446   5.3762   5.3883

          k = 0.1429 0.2474-0.2027 ( 68747 PWs)   bands (ev):

   -29.3862 -29.2290 -29.2239 -29.0632 -28.9988 -28.9697 -28.8556 -28.8131
   -28.7267 -28.7021 -28.6542 -28.6400 -28.6233 -28.6105 -28.5948 -28.5647
   -13.1978 -13.1816 -13.1701 -13.1114 -13.1054 -13.0696 -13.0369 -13.0139
   -12.9777 -12.9695 -12.9583 -12.9294 -12.9128 -12.8826 -12.8640 -12.8305
   -12.7858 -12.7382 -12.7156 -12.7026 -12.6901 -12.6298 -12.6126 -12.5781
   -12.5525 -12.4962 -12.4720 -12.4365 -12.4171 -12.3966 -12.3711 -12.3589
   -12.3430 -12.3019 -12.2755 -12.2582 -12.2335 -12.1955 -12.1731 -12.1327
   -12.1097 -12.0598 -12.0403 -12.0212 -11.9974 -11.9899 -11.9704 -11.9275
     2.4051   2.5919   2.6672   2.8050   2.9462   2.9927   3.0714   3.1054
     3.1845   3.2483   3.2773   3.3368   3.4308   3.5168   3.5274   3.5915
     3.6362   3.7079   3.7489   3.7941   3.8374   3.9372   3.9928   4.0230
     4.0820   4.1439   4.1937   4.2678   4.3392   4.3703   4.4160   4.4745
     4.5074   4.5888   4.6333   4.6821   4.7376   4.7846   4.8240   4.8747
     4.8918   4.9565   4.9847   5.0421   5.0753   5.1133   5.1680   5.2160
     5.2393   5.2917   5.3251   5.3403   5.3684   5.3957

          k = 0.1429 0.2474-0.1501 ( 68756 PWs)   bands (ev):

   -29.3862 -29.2287 -29.2242 -29.0632 -28.9988 -28.9697 -28.8556 -28.8131
   -28.7248 -28.7058 -28.6523 -28.6388 -28.6241 -28.6108 -28.5949 -28.5648
   -13.1974 -13.1831 -13.1741 -13.1110 -13.1035 -13.0678 -13.0409 -13.0134
   -12.9749 -12.9686 -12.9562 -12.9311 -12.9131 -12.8835 -12.8530 -12.8393
   -12.7834 -12.7311 -12.7123 -12.7028 -12.6906 -12.6344 -12.6120 -12.5879
   -12.5591 -12.4993 -12.4564 -12.4389 -12.4172 -12.3880 -12.3755 -12.3580
   -12.3543 -12.2897 -12.2818 -12.2556 -12.2402 -12.1945 -12.1820 -12.1251
   -12.1165 -12.0635 -12.0359 -12.0116 -11.9934 -11.9903 -11.9674 -11.9352
     2.4586   2.5270   2.6579   2.7991   2.9682   3.0035   3.0257   3.1121
     3.1919   3.2926   3.3108   3.3453   3.4254   3.4503   3.4944   3.6074
     3.6437   3.6974   3.7181   3.8016   3.8788   3.9663   3.9965   4.0260
     4.0856   4.1606   4.1891   4.2763   4.3469   4.3692   4.4042   4.4688
     4.4782   4.5844   4.6349   4.6795   4.7458   4.7749   4.8236   4.8471
     4.9002   4.9653   4.9979   5.0503   5.0802   5.1090   5.1595   5.2072
     5.2299   5.3106   5.3274   5.3426   5.3653   5.3897

          k = 0.1429 0.2474-0.0976 ( 68722 PWs)   bands (ev):

   -29.3862 -29.2291 -29.2238 -29.0632 -28.9988 -28.9697 -28.8556 -28.8131
   -28.7278 -28.6996 -28.6558 -28.6406 -28.6228 -28.6104 -28.5946 -28.5646
   -13.1982 -13.1806 -13.1672 -13.1115 -13.1065 -13.0711 -13.0347 -13.0136
   -12.9826 -12.9666 -12.9595 -12.9285 -12.9131 -12.8820 -12.8697 -12.8265
   -12.7882 -12.7399 -12.7196 -12.7060 -12.6877 -12.6264 -12.6076 -12.5751
   -12.5489 -12.4952 -12.4787 -12.4396 -12.4144 -12.3964 -12.3768 -12.3590
   -12.3363 -12.3035 -12.2779 -12.2573 -12.2280 -12.1954 -12.1679 -12.1375
   -12.1053 -12.0584 -12.0442 -12.0257 -12.0032 -11.9890 -11.9704 -11.9235
     2.3839   2.6161   2.6787   2.8112   2.9319   3.0020   3.0757   3.1091
     3.1714   3.2212   3.2818   3.3308   3.4372   3.5111   3.5495   3.6026
     3.6396   3.7061   3.7688   3.7763   3.8376   3.9194   3.9882   4.0215
     4.0618   4.1415   4.2024   4.2534   4.3310   4.3733   4.4335   4.4828
     4.5095   4.5915   4.6392   4.6817   4.7370   4.7882   4.8280   4.8770
     4.9002   4.9506   4.9713   5.0446   5.0666   5.1155   5.1725   5.2187
     5.2470   5.2794   5.3269   5.3388   5.3715   5.3918

          k = 0.1786 0.3093-0.0563 ( 68727 PWs)   bands (ev):

   -29.3747 -29.2167 -29.2112 -29.0464 -28.9909 -28.9601 -28.8427 -28.8014
   -28.7102 -28.6744 -28.6488 -28.6289 -28.6163 -28.6044 -28.5928 -28.5565
   -13.2594 -13.2220 -13.1821 -13.1592 -13.1517 -13.1117 -13.0789 -13.0644
   -13.0324 -13.0189 -12.9979 -12.9567 -12.9352 -12.9085 -12.8938 -12.8477
   -12.8235 -12.7944 -12.7676 -12.7490 -12.6793 -12.6722 -12.6292 -12.6170
   -12.5964 -12.5432 -12.5225 -12.4718 -12.4521 -12.4259 -12.4195 -12.3871
   -12.3640 -12.3312 -12.2945 -12.2673 -12.2294 -12.2150 -12.1782 -12.1628
   -12.1206 -12.0799 -12.0674 -12.0517 -12.0478 -12.0144 -12.0037 -11.9547
     2.5924   2.6161   2.6629   2.7914   2.8545   2.9142   2.9715   3.0144
     3.0677   3.1100   3.1931   3.2585   3.3553   3.4161   3.4305   3.5376
     3.5884   3.6388   3.6728   3.7075   3.7558   3.8312   3.8621   3.9747
     4.0445   4.1148   4.1732   4.2782   4.3115   4.3924   4.5709   4.6087
     4.6413   4.6608   4.7319   4.8268   4.8548   4.9157   4.9625   4.9932
     5.0381   5.0607   5.1049   5.1457   5.2008   5.2277   5.2694   5.3221
     5.3292   5.3650   5.3841   5.4030   5.4218   5.4529

          k = 0.1786 0.3093-0.0038 ( 68722 PWs)   bands (ev):

   -29.3747 -29.2168 -29.2110 -29.0464 -28.9909 -28.9601 -28.8427 -28.8014
   -28.7112 -28.6693 -28.6533 -28.6293 -28.6155 -28.6054 -28.5918 -28.5564
   -13.2608 -13.2186 -13.1793 -13.1511 -13.1484 -13.1240 -13.0696 -13.0613
   -13.0416 -13.0166 -13.0039 -12.9520 -12.9416 -12.9157 -12.8844 -12.8584
   -12.8264 -12.8213 -12.7599 -12.7304 -12.6692 -12.6589 -12.6403 -12.6243
   -12.5896 -12.5330 -12.5282 -12.4848 -12.4607 -12.4244 -12.4067 -12.3923
   -12.3683 -12.3383 -12.2918 -12.2579 -12.2274 -12.1836 -12.1815 -12.1553
   -12.1209 -12.1003 -12.0662 -12.0590 -12.0562 -12.0100 -12.0037 -11.9558
     2.5878   2.6221   2.7013   2.7290   2.8456   2.9186   3.0050   3.0356
     3.0594   3.1076   3.2084   3.2981   3.3351   3.3797   3.4000   3.5527
     3.5735   3.5931   3.6551   3.7438   3.7952   3.8438   3.9351   3.9525
     3.9901   4.0240   4.1941   4.2467   4.3596   4.4392   4.5417   4.6074
     4.6407   4.7262   4.7584   4.8265   4.8513   4.9312   4.9550   5.0004
     5.0082   5.0646   5.1168   5.1302   5.1965   5.2286   5.2536   5.2956
     5.3432   5.3594   5.3860   5.4096   5.4298   5.4422

          k = 0.1786 0.3093 0.0488 ( 68729 PWs)   bands (ev):

   -29.3747 -29.2167 -29.2111 -29.0464 -28.9909 -28.9601 -28.8427 -28.8014
   -28.7104 -28.6733 -28.6497 -28.6290 -28.6162 -28.6046 -28.5926 -28.5565
   -13.2597 -13.2212 -13.1814 -13.1579 -13.1513 -13.1136 -13.0766 -13.0641
   -13.0345 -13.0184 -12.9993 -12.9560 -12.9365 -12.9074 -12.8958 -12.8472
   -12.8271 -12.7988 -12.7659 -12.7455 -12.6767 -12.6699 -12.6305 -12.6186
   -12.5947 -12.5421 -12.5234 -12.4743 -12.4539 -12.4254 -12.4173 -12.3878
   -12.3649 -12.3332 -12.2933 -12.2653 -12.2277 -12.2106 -12.1786 -12.1622
   -12.1190 -12.0841 -12.0672 -12.0535 -12.0493 -12.0136 -12.0036 -11.9549
     2.5931   2.6211   2.6550   2.8005   2.8447   2.9101   2.9771   3.0195
     3.0691   3.1128   3.1907   3.2584   3.3452   3.4147   3.4437   3.5250
     3.5868   3.6456   3.6622   3.7210   3.7527   3.8301   3.8690   3.9702
     4.0355   4.1042   4.1785   4.2729   4.3187   4.4013   4.5670   4.6095
     4.6427   4.6724   4.7382   4.8318   4.8509   4.9139   4.9569   4.9927
     5.0472   5.0613   5.1062   5.1343   5.2021   5.2232   5.2707   5.3214
     5.3275   5.3639   5.3858   5.4028   5.4215   5.4443

          k = 0.1786 0.3093-0.2139 ( 68760 PWs)   bands (ev):

   -29.3747 -29.2165 -29.2114 -29.0465 -28.9909 -28.9601 -28.8427 -28.8014
   -28.7083 -28.6803 -28.6440 -28.6282 -28.6173 -28.6031 -28.5945 -28.5566
   -13.2571 -13.2280 -13.1863 -13.1627 -13.1538 -13.1064 -13.0943 -13.0609
   -13.0266 -13.0161 -12.9888 -12.9583 -12.9332 -12.9096 -12.8763 -12.8514
   -12.8047 -12.7918 -12.7667 -12.7499 -12.6976 -12.6847 -12.6412 -12.6165
   -12.5882 -12.5441 -12.5175 -12.4606 -12.4498 -12.4279 -12.4213 -12.3871
   -12.3527 -12.3212 -12.3106 -12.2771 -12.2593 -12.2165 -12.1771 -12.1612
   -12.1326 -12.0702 -12.0639 -12.0420 -12.0365 -12.0172 -12.0023 -11.9537
     2.5671   2.6518   2.6951   2.7283   2.8563   2.9136   2.9714   2.9977
     3.0629   3.1282   3.2190   3.2969   3.3351   3.4141   3.4591   3.5125
     3.5399   3.5841   3.6616   3.7538   3.7812   3.8666   3.8948   4.0012
     4.0498   4.1096   4.1934   4.2559   4.3019   4.3645   4.5268   4.5682
     4.6403   4.6638   4.7209   4.8054   4.8691   4.8958   4.9717   5.0067
     5.0268   5.0693   5.1098   5.1677   5.2145   5.2458   5.2796   5.3066
     5.3445   5.3615   5.3771   5.4051   5.4325   5.4377

          k = 0.1786 0.3093-0.1614 ( 68782 PWs)   bands (ev):

   -29.3747 -29.2164 -29.2115 -29.0465 -28.9909 -28.9601 -28.8427 -28.8013
   -28.7067 -28.6839 -28.6416 -28.6277 -28.6177 -28.6021 -28.5959 -28.5567
   -13.2557 -13.2321 -13.1890 -13.1615 -13.1550 -13.1085 -13.1035 -13.0529
   -13.0337 -13.0074 -12.9822 -12.9578 -12.9378 -12.8928 -12.8818 -12.8447
   -12.8095 -12.8020 -12.7470 -12.7294 -12.7142 -12.6960 -12.6604 -12.6201
   -12.5811 -12.5375 -12.5003 -12.4816 -12.4493 -12.4294 -12.3998 -12.3898
   -12.3558 -12.3292 -12.3011 -12.2867 -12.2787 -12.2121 -12.1765 -12.1593
   -12.1387 -12.0745 -12.0611 -12.0354 -12.0330 -12.0153 -11.9987 -11.9537
     2.5848   2.6068   2.7475   2.7645   2.7888   2.8537   2.9638   3.0046
     3.1312   3.1935   3.2393   3.2526   3.3460   3.3924   3.4235   3.4411
     3.5679   3.6427   3.6556   3.7048   3.7967   3.8644   3.9648   4.0313
     4.0602   4.1042   4.1730   4.2390   4.2831   4.3685   4.5055   4.5323
     4.6084   4.6833   4.7445   4.8055   4.8513   4.8802   4.9863   5.0067
     5.0215   5.0932   5.1309   5.1642   5.2218   5.2424   5.2842   5.3131
     5.3528   5.3605   5.3766   5.4022   5.4306   5.4356

          k = 0.1786 0.3093-0.1088 ( 68759 PWs)   bands (ev):

   -29.3747 -29.2165 -29.2114 -29.0465 -28.9909 -28.9601 -28.8427 -28.8014
   -28.7079 -28.6812 -28.6434 -28.6281 -28.6174 -28.6029 -28.5948 -28.5566
   -13.2568 -13.2289 -13.1870 -13.1626 -13.1541 -13.1066 -13.0965 -13.0596
   -13.0278 -13.0141 -12.9874 -12.9582 -12.9341 -12.9075 -12.8752 -12.8509
   -12.8035 -12.7954 -12.7637 -12.7463 -12.7007 -12.6867 -12.6451 -12.6173
   -12.5859 -12.5430 -12.5161 -12.4620 -12.4501 -12.4281 -12.4183 -12.3875
   -12.3506 -12.3241 -12.3099 -12.2782 -12.2641 -12.2156 -12.1771 -12.1605
   -12.1343 -12.0709 -12.0631 -12.0404 -12.0352 -12.0172 -12.0017 -11.9537
     2.5662   2.6580   2.6878   2.7339   2.8522   2.9000   2.9680   3.0007
     3.0777   3.1328   3.2251   3.2926   3.3358   3.4103   3.4690   3.4941
     3.5348   3.5862   3.6571   3.7515   3.7888   3.8761   3.9047   4.0066
     4.0466   4.1067   4.1968   4.2491   4.2978   4.3667   4.5166   4.5614
     4.6384   4.6656   4.7261   4.8053   4.8697   4.8848   4.9770   5.0086
     5.0246   5.0743   5.1133   5.1651   5.2164   5.2506   5.2807   5.3043
     5.3477   5.3594   5.3764   5.4050   5.4315   5.4407

          k = 0.2143 0.3712-0.0676 ( 68740 PWs)   bands (ev):

   -29.3668 -29.2079 -29.2025 -29.0343 -28.9860 -28.9533 -28.8337 -28.7933
   -28.6944 -28.6619 -28.6372 -28.6242 -28.6108 -28.6007 -28.5938 -28.5509
   -13.3336 -13.2923 -13.2138 -13.2084 -13.1840 -13.1778 -13.1188 -13.0947
   -13.0828 -13.0412 -13.0095 -12.9888 -12.9666 -12.9530 -12.8940 -12.8781
   -12.8357 -12.8181 -12.7770 -12.7509 -12.7116 -12.6779 -12.6312 -12.6235
   -12.5862 -12.5583 -12.5224 -12.4901 -12.4702 -12.4455 -12.4269 -12.4091
   -12.3687 -12.3427 -12.3064 -12.2795 -12.2485 -12.2200 -12.1971 -12.1718
   -12.1466 -12.0985 -12.0814 -12.0681 -12.0514 -12.0354 -12.0259 -11.9850
     2.4482   2.5293   2.6580   2.7200   2.8158   2.8668   2.8930   2.9334
     2.9856   3.0514   3.1302   3.2027   3.2475   3.3071   3.3427   3.4117
     3.4780   3.5424   3.6112   3.6620   3.7200   3.7984   3.8682   3.8909
     4.0176   4.0889   4.1303   4.2699   4.3228   4.4922   4.5921   4.6349
     4.7003   4.7494   4.8026   4.8598   4.9318   4.9595   5.0351   5.0589
     5.0671   5.1299   5.1495   5.2416   5.2691   5.2947   5.3440   5.3651
     5.3894   5.4210   5.4461   5.4633   5.4746   5.4931

          k = 0.2143 0.3712-0.0150 ( 68764 PWs)   bands (ev):

   -29.3668 -29.2080 -29.2025 -29.0343 -28.9860 -28.9533 -28.8337 -28.7933
   -28.6951 -28.6593 -28.6392 -28.6245 -28.6108 -28.6012 -28.5929 -28.5509
   -13.3347 -13.2911 -13.2072 -13.2037 -13.1888 -13.1790 -13.1149 -13.0957
   -13.0875 -13.0380 -13.0115 -12.9892 -12.9690 -12.9528 -12.8953 -12.8729
   -12.8562 -12.8287 -12.7711 -12.7411 -12.6919 -12.6749 -12.6525 -12.6279
   -12.5775 -12.5587 -12.5132 -12.4940 -12.4807 -12.4431 -12.4227 -12.4116
   -12.3750 -12.3483 -12.3092 -12.2675 -12.2298 -12.2134 -12.1962 -12.1748
   -12.1451 -12.1049 -12.0791 -12.0701 -12.0571 -12.0365 -12.0210 -11.9944
     2.4956   2.5436   2.5784   2.6395   2.8290   2.8673   2.9186   2.9719
     3.0000   3.0911   3.1483   3.2098   3.2685   3.3117   3.3743   3.4247
     3.4777   3.5180   3.5413   3.6153   3.7140   3.8060   3.8243   3.8955
     4.0090   4.0446   4.1250   4.2682   4.4178   4.5228   4.6011   4.6489
     4.6780   4.7803   4.8105   4.8615   4.8982   4.9700   5.0235   5.0724
     5.0956   5.1106   5.1815   5.2230   5.2730   5.2935   5.3196   5.3567
     5.3719   5.4038   5.4233   5.4513   5.4756   5.4910

          k = 0.2143 0.3712 0.0375 ( 68747 PWs)   bands (ev):

   -29.3668 -29.2080 -29.2025 -29.0343 -28.9860 -28.9533 -28.8337 -28.7933
   -28.6949 -28.6602 -28.6385 -28.6244 -28.6108 -28.6011 -28.5932 -28.5509
   -13.3344 -13.2914 -13.2100 -13.2057 -13.1858 -13.1790 -13.1141 -13.0959
   -13.0877 -13.0391 -13.0104 -12.9890 -12.9676 -12.9547 -12.8965 -12.8721
   -12.8500 -12.8243 -12.7730 -12.7459 -12.6996 -12.6740 -12.6443 -12.6278
   -12.5799 -12.5585 -12.5184 -12.4872 -12.4803 -12.4435 -12.4264 -12.4097
   -12.3727 -12.3471 -12.3071 -12.2720 -12.2324 -12.2185 -12.1983 -12.1734
   -12.1427 -12.1050 -12.0803 -12.0691 -12.0536 -12.0370 -12.0230 -11.9911
     2.4692   2.5447   2.5917   2.6917   2.8215   2.8638   2.9054   2.9637
     3.0072   3.0814   3.1066   3.2020   3.2768   3.3197   3.3397   3.4418
     3.4887   3.5198   3.5763   3.6367   3.6905   3.7986   3.8530   3.8946
     3.9944   4.0715   4.1318   4.2668   4.3701   4.5268   4.5958   4.6343
     4.6829   4.7884   4.8397   4.8642   4.9065   4.9320   5.0284   5.0473
     5.0812   5.1193   5.1935   5.2196   5.2693   5.2893   5.3406   5.3539
     5.3752   5.4103   5.4360   5.4555   5.4793   5.4916

          k = 0.2143 0.3712-0.2252 ( 68775 PWs)   bands (ev):

   -29.3668 -29.2079 -29.2025 -29.0343 -28.9860 -28.9533 -28.8337 -28.7933
   -28.6940 -28.6633 -28.6362 -28.6239 -28.6109 -28.6002 -28.5945 -28.5509
   -13.3330 -13.2932 -13.2158 -13.2089 -13.1850 -13.1770 -13.1263 -13.0922
   -13.0759 -13.0434 -13.0095 -12.9894 -12.9647 -12.9473 -12.8923 -12.8828
   -12.8300 -12.8166 -12.7772 -12.7504 -12.7178 -12.6841 -12.6289 -12.6151
   -12.5884 -12.5580 -12.5247 -12.4938 -12.4648 -12.4487 -12.4224 -12.4079
   -12.3665 -12.3383 -12.3112 -12.2823 -12.2632 -12.2186 -12.1951 -12.1740
   -12.1485 -12.0949 -12.0802 -12.0667 -12.0537 -12.0330 -12.0264 -11.9805
     2.4449   2.5360   2.6758   2.7036   2.8177   2.8737   2.9019   2.9138
     2.9815   3.0445   3.1473   3.2006   3.2456   3.3035   3.3427   3.3745
     3.4702   3.5433   3.6046   3.6595   3.7659   3.8059   3.8742   3.9045
     4.0386   4.0848   4.1390   4.2694   4.3294   4.4471   4.5714   4.6387
     4.6870   4.7151   4.8176   4.8484   4.9248   4.9840   5.0526   5.0630
     5.0892   5.1155   5.1552   5.2529   5.2691   5.3071   5.3442   5.3676
     5.3974   5.4216   5.4465   5.4585   5.4668   5.4949

          k = 0.2143 0.3712-0.1727 ( 68796 PWs)   bands (ev):

   -29.3668 -29.2079 -29.2026 -29.0343 -28.9860 -28.9533 -28.8337 -28.7932
   -28.6932 -28.6656 -28.6348 -28.6234 -28.6109 -28.5991 -28.5960 -28.5510
   -13.3321 -13.2949 -13.2177 -13.2055 -13.1884 -13.1794 -13.1397 -13.0844
   -13.0668 -13.0472 -13.0101 -12.9907 -12.9559 -12.9320 -12.9029 -12.8807
   -12.8372 -12.8196 -12.7691 -12.7430 -12.7176 -12.6995 -12.6291 -12.6167
   -12.5729 -12.5626 -12.5233 -12.4956 -12.4664 -12.4568 -12.4192 -12.3885
   -12.3686 -12.3392 -12.3154 -12.2933 -12.2778 -12.2140 -12.1948 -12.1853
   -12.1379 -12.1031 -12.0729 -12.0622 -12.0597 -12.0311 -12.0240 -11.9742
     2.4870   2.5432   2.6045   2.6681   2.8119   2.8599   2.9318   2.9544
     3.0421   3.0797   3.1208   3.1577   3.2426   3.2733   3.3381   3.4159
     3.4718   3.5423   3.5714   3.6194   3.6876   3.8235   3.9217   4.0010
     4.0584   4.0735   4.1665   4.2876   4.3392   4.4135   4.5012   4.6039
     4.6567   4.6867   4.8129   4.8695   4.9613   4.9943   5.0340   5.0842
     5.1068   5.1586   5.2083   5.2447   5.2972   5.3161   5.3430   5.3643
     5.3918   5.4080   5.4205   5.4352   5.4616   5.4749

          k = 0.2143 0.3712-0.1201 ( 68781 PWs)   bands (ev):

   -29.3668 -29.2079 -29.2025 -29.0343 -28.9860 -28.9533 -28.8337 -28.7933
   -28.6935 -28.6649 -28.6352 -28.6235 -28.6109 -28.5995 -28.5955 -28.5510
   -13.3324 -13.2944 -13.2173 -13.2072 -13.1872 -13.1780 -13.1357 -13.0875
   -13.0685 -13.0465 -13.0098 -12.9905 -12.9594 -12.9377 -12.8977 -12.8824
   -12.8329 -12.8182 -12.7723 -12.7459 -12.7199 -12.6935 -12.6288 -12.6149
   -12.5796 -12.5593 -12.5261 -12.4956 -12.4634 -12.4545 -12.4194 -12.3976
   -12.3665 -12.3361 -12.3177 -12.2851 -12.2771 -12.2156 -12.1942 -12.1816
   -12.1430 -12.0990 -12.0749 -12.0632 -12.0586 -12.0314 -12.0250 -11.9760
     2.4602   2.5670   2.5974   2.7100   2.8096   2.8543   2.9149   2.9616
     3.0048   3.0478   3.1400   3.1854   3.2577   3.2900   3.3198   3.3909
     3.4729   3.5338   3.5763   3.6487   3.7281   3.8177   3.9080   3.9658
     4.0439   4.0800   4.1577   4.2857   4.3528   4.3991   4.5168   4.6298
     4.6672   4.6891   4.8171   4.8844   4.9224   4.9867   5.0454   5.0782
     5.1021   5.1387   5.1872   5.2630   5.2812   5.3112   5.3442   5.3645
     5.3928   5.4166   5.4309   5.4536   5.4618   5.4720

          k =-0.2500-0.4330 0.0788 ( 68800 PWs)   bands (ev):

   -29.3639 -29.2049 -29.1993 -29.0298 -28.9844 -28.9510 -28.8305 -28.7904
   -28.6884 -28.6566 -28.6298 -28.6281 -28.6036 -28.6034 -28.5940 -28.5489
   -13.3612 -13.3187 -13.2330 -13.2229 -13.2066 -13.2035 -13.1321 -13.1091
   -13.0963 -13.0509 -13.0266 -13.0000 -12.9821 -12.9615 -12.9119 -12.8887
   -12.8374 -12.8224 -12.7797 -12.7489 -12.7111 -12.6774 -12.6219 -12.6181
   -12.5684 -12.5557 -12.5304 -12.5075 -12.4773 -12.4516 -12.4182 -12.4042
   -12.3799 -12.3505 -12.3036 -12.2825 -12.2682 -12.2159 -12.2049 -12.1701
   -12.1574 -12.1080 -12.0968 -12.0697 -12.0598 -12.0404 -12.0264 -11.9964
     2.3889   2.4948   2.6617   2.6752   2.7854   2.8425   2.8606   2.8887
     2.9587   3.0327   3.1073   3.1583   3.2069   3.2667   3.3040   3.3356
     3.4497   3.5471   3.5837   3.6161   3.7502   3.7879   3.8146   3.8631
     4.0177   4.0717   4.1149   4.3434   4.4125   4.4915   4.5357   4.6188
     4.7167   4.7843   4.8054   4.8399   4.9510   4.9830   5.0507   5.1144
     5.1350   5.1648   5.2231   5.2718   5.2838   5.3283   5.3391   5.3423
     5.4036   5.4155   5.4245   5.4564   5.4726   5.4873

          k =-0.2500-0.4330 0.1314 ( 68781 PWs)   bands (ev):

   -29.3639 -29.2049 -29.1993 -29.0298 -28.9844 -28.9510 -28.8305 -28.7904
   -28.6884 -28.6566 -28.6298 -28.6281 -28.6036 -28.6034 -28.5940 -28.5489
   -13.3613 -13.3188 -13.2294 -13.2197 -13.2130 -13.2033 -13.1408 -13.1054
   -13.0907 -13.0526 -13.0234 -13.0049 -12.9783 -12.9543 -12.9160 -12.8883
   -12.8474 -12.8269 -12.7748 -12.7470 -12.7028 -12.6784 -12.6325 -12.6142
   -12.5653 -12.5493 -12.5326 -12.5190 -12.4692 -12.4498 -12.4192 -12.4094
   -12.3717 -12.3504 -12.3211 -12.2730 -12.2584 -12.2162 -12.2084 -12.1839
   -12.1540 -12.1074 -12.0845 -12.0682 -12.0611 -12.0429 -12.0318 -11.9948
     2.4275   2.5296   2.5381   2.6301   2.7994   2.8391   2.8874   2.9447
     2.9992   3.0408   3.1037   3.1471   3.2284   3.2685   3.3086   3.3822
     3.4501   3.4981   3.5451   3.5677   3.6570   3.7766   3.8448   3.9322
     4.0323   4.0626   4.1881   4.3537   4.4025   4.4124   4.5407   4.6283
     4.7130   4.7333   4.8161   4.9305   4.9494   4.9968   5.0646   5.0927
     5.1387   5.1911   5.2213   5.2479   5.2802   5.3004   5.3504   5.3627
     5.3942   5.4111   5.4258   5.4448   5.4681   5.4944

          k =-0.2500-0.4330 0.1839 ( 68781 PWs)   bands (ev):

   -29.3639 -29.2049 -29.1993 -29.0298 -28.9844 -28.9510 -28.8305 -28.7904
   -28.6884 -28.6566 -28.6298 -28.6281 -28.6036 -28.6034 -28.5940 -28.5489
   -13.3613 -13.3188 -13.2294 -13.2197 -13.2130 -13.2033 -13.1408 -13.1054
   -13.0907 -13.0526 -13.0234 -13.0049 -12.9783 -12.9543 -12.9160 -12.8883
   -12.8474 -12.8269 -12.7748 -12.7470 -12.7028 -12.6784 -12.6325 -12.6142
   -12.5653 -12.5493 -12.5326 -12.5190 -12.4692 -12.4498 -12.4192 -12.4094
   -12.3717 -12.3504 -12.3211 -12.2730 -12.2584 -12.2162 -12.2084 -12.1839
   -12.1540 -12.1074 -12.0845 -12.0682 -12.0611 -12.0429 -12.0318 -11.9948
     2.4275   2.5296   2.5381   2.6301   2.7994   2.8391   2.8874   2.9447
     2.9992   3.0408   3.1037   3.1471   3.2284   3.2685   3.3086   3.3822
     3.4501   3.4981   3.5451   3.5677   3.6570   3.7766   3.8448   3.9322
     4.0323   4.0626   4.1881   4.3537   4.4025   4.4124   4.5407   4.6283
     4.7130   4.7333   4.8161   4.9304   4.9494   4.9968   5.0646   5.0926
     5.1387   5.1911   5.2213   5.2480   5.2801   5.3003   5.3506   5.3628
     5.3942   5.4111   5.4258   5.4450   5.4682   5.4951

          k =-0.2500-0.4330-0.0788 ( 68800 PWs)   bands (ev):

   -29.3639 -29.2049 -29.1993 -29.0298 -28.9844 -28.9510 -28.8305 -28.7904
   -28.6884 -28.6566 -28.6298 -28.6281 -28.6036 -28.6034 -28.5940 -28.5489
   -13.3612 -13.3187 -13.2330 -13.2229 -13.2066 -13.2035 -13.1321 -13.1091
   -13.0963 -13.0509 -13.0266 -13.0000 -12.9821 -12.9615 -12.9119 -12.8887
   -12.8374 -12.8224 -12.7797 -12.7489 -12.7111 -12.6774 -12.6219 -12.6181
   -12.5684 -12.5557 -12.5304 -12.5075 -12.4773 -12.4516 -12.4182 -12.4042
   -12.3799 -12.3505 -12.3036 -12.2825 -12.2682 -12.2159 -12.2049 -12.1701
   -12.1574 -12.1080 -12.0968 -12.0697 -12.0598 -12.0404 -12.0264 -11.9964
     2.3889   2.4948   2.6617   2.6752   2.7854   2.8425   2.8606   2.8887
     2.9587   3.0327   3.1073   3.1583   3.2069   3.2667   3.3040   3.3356
     3.4497   3.5471   3.5837   3.6161   3.7502   3.7879   3.8146   3.8631
     4.0177   4.0717   4.1149   4.3434   4.4125   4.4915   4.5357   4.6188
     4.7167   4.7843   4.8054   4.8399   4.9510   4.9830   5.0506   5.1144
     5.1350   5.1648   5.2231   5.2718   5.2838   5.3283   5.3390   5.3423
     5.4037   5.4152   5.4246   5.4558   5.4716   5.4863

     the Fermi energy is     4.0634 ev

!    total energy              =   -1640.78164983 Ry
     estimated scf accuracy    <       0.00000053 Ry
     smearing contrib. (-TS)   =      -0.04426068 Ry
     internal energy E=F+TS    =   -1640.73738915 Ry

     The total energy is F=E-TS. E is the sum of the following terms:
     one-electron contribution =   -5016.35119704 Ry
     hartree contribution      =    2535.00259790 Ry
     xc contribution           =    -786.88650103 Ry
     ewald contribution        =    1627.49771101 Ry
     electric field correction =       0.00000002 Ry

     convergence has been achieved in  38 iterations

     negative rho (up, down):  8.382E-01 0.000E+00

     Forces acting on atoms (cartesian axes, Ry/au):

     atom    1 type  1   force =     0.01300101   -0.00750256    0.00480019
     atom    2 type  1   force =     0.00197892   -0.00114195    0.00051204
     atom    3 type  1   force =    -0.00756408    0.00436581   -0.00294868
     atom    4 type  1   force =    -0.00487708    0.00281630    0.00035239
     atom    5 type  1   force =     0.00501375   -0.00289407    0.00107489
     atom    6 type  1   force =     0.00647866   -0.00373984    0.00190894
     atom    7 type  1   force =    -0.00542195    0.00312970   -0.00020243
     atom    8 type  1   force =    -0.00606546    0.00349704    0.00024858
     atom    9 type  1   force =     0.00356527   -0.00205840   -0.00431767
     atom   10 type  1   force =     0.00555175   -0.00320640    0.00108768
     atom   11 type  1   force =    -0.00400264    0.00231081   -0.00017710
     atom   12 type  1   force =    -0.00562119    0.00324610   -0.00112711
     atom   13 type  1   force =    -0.00480553    0.00277410   -0.00266275
     atom   14 type  1   force =    -0.00396782    0.00228946   -0.00343059
     atom   15 type  1   force =     0.00184872   -0.00106675    0.00337594
     atom   16 type  1   force =     0.00488767   -0.00281935    0.00150568

     Total force =     0.028576     Total SCF correction =     0.002698

     Writing all to output data dir ./calc.save/
 
     init_run     :     50.65s CPU     52.16s WALL (       1 calls)
     electrons    :   2410.87s CPU   2475.72s WALL (       1 calls)
     forces       :     15.49s CPU     16.31s WALL (       1 calls)

     Called by init_run:
     wfcinit      :     46.57s CPU     47.04s WALL (       1 calls)
     potinit      :      0.74s CPU      0.79s WALL (       1 calls)
     hinit0       :      1.20s CPU      1.36s WALL (       1 calls)

     Called by electrons:
     c_bands      :   2012.60s CPU   2021.77s WALL (      38 calls)
     sum_band     :    305.48s CPU    334.12s WALL (      38 calls)
     v_of_rho     :      7.51s CPU      7.71s WALL (      39 calls)
     newd         :     56.28s CPU     83.45s WALL (      39 calls)
     mix_rho      :     29.81s CPU     30.08s WALL (      38 calls)

     Called by c_bands:
     init_us_2    :     35.50s CPU     35.61s WALL (    3432 calls)
     init_us_2:cp :     35.47s CPU     35.60s WALL (    3432 calls)
     cegterg      :   1669.05s CPU   1676.54s WALL (    1676 calls)

     Called by *egterg:
     cdiaghg      :    122.52s CPU    122.68s WALL (    8415 calls)
     h_psi        :    996.04s CPU   1002.26s WALL (    8459 calls)
     s_psi        :    212.34s CPU    212.47s WALL (    8459 calls)
     g_psi        :      5.00s CPU      5.02s WALL (    6739 calls)

     Called by h_psi:
     h_psi:calbec :    209.44s CPU    210.05s WALL (    8459 calls)
     vloc_psi     :    563.55s CPU    568.77s WALL (    8459 calls)
     add_vuspsi   :    212.77s CPU    212.98s WALL (    8459 calls)

     General routines
     calbec       :    299.60s CPU    300.45s WALL (   10307 calls)
     fft          :      6.74s CPU      7.05s WALL (     516 calls)
     ffts         :     12.33s CPU     12.44s WALL (    9852 calls)
     fftw         :    603.81s CPU    609.49s WALL ( 1118824 calls)
     interpolate  :      0.48s CPU      0.49s WALL (      39 calls)
 
     Parallel routines
 
     PWSCF        :  41m21.67s CPU  42m37.36s WALL

 
   This run was terminated on:   2:48:35   8Aug2023            

=------------------------------------------------------------------------------=
   JOB DONE.
=------------------------------------------------------------------------------=
