  python dir          : /home/p.schindler/.conda/envs/dft3_8/lib/python3.8/site-packages/espresso
  espresso dir        : /home/p.schindler/q-e_7-1/bin/
  pseudo dir          : /home/p.schindler/q-e_7-1/PSPs/Vanderbilt_USPP_PBE/
  ase-espresso py git : 4b1d7e3-git



     Program PWSCF v.7.1 starts on  8Aug2023 at  2: 5:57 

     This program is part of the open-source Quantum ESPRESSO suite
     for quantum simulation of materials; please cite
         "P. Giannozzi et al., J. Phys.:Condens. Matter 21 395502 (2009);
         "P. Giannozzi et al., J. Phys.:Condens. Matter 29 465901 (2017);
         "P. Giannozzi et al., J. Chem. Phys. 152 154105 (2020);
          URL http://www.quantum-espresso.org", 
     in publications or presentations arising from this work. More details at
     http://www.quantum-espresso.org/quote

     Parallel version (MPI), running on    20 processors

     MPI processes distributed on     1 nodes
     97395 MiB available memory on the printing compute node when the environment starts
 
     Reading input from pw.inp

     Current dimensions of program PWSCF are:
     Max number of different atomic species (ntypx) = 10
     Max number of k-points (npk) =  40000
     Max angular momentum in pseudopotentials (lmaxx) =  4
     Presently no symmetry can be used with electric field

     file Tm.UPF: wavefunction(s)  5D renormalized

     IMPORTANT: XC functional enforced from input :
     Exchange-correlation= PBE
                           (   1   4   3   4   0   0   0)
     Any further DFT definition will be discarded
     Please, verify this is what you really want

 
     R & G space division:  proc/nbgrp/npool/nimage =      20
     Subspace diagonalization in iterative solution of the eigenvalue problem:
     a serial algorithm will be used

 
     Parallelization info
     --------------------
     sticks:   dense  smooth     PW     G-vecs:    dense   smooth      PW
     Min         205      81     23                72256    18259    2854
     Max         206      82     24                72282    18300    2885
     Sum        4111    1633    475              1445367   365587   57435
 
     Using Slab Decomposition
 


     bravais-lattice index     =            0
     lattice parameter (alat)  =      10.6616  a.u.
     unit-cell volume          =    5479.6710 (a.u.)^3
     number of atoms/cell      =           42
     number of atomic types    =            2
     number of electrons       =       238.00
     number of Kohn-Sham states=          149
     kinetic-energy cutoff     =      62.4738  Ry
     charge density cutoff     =     624.7385  Ry
     scf convergence threshold =      7.3E-07
     mixing beta               =       0.1500
     number of iterations used =           10  local-TF  mixing
     Exchange-correlation= PBE
                           (   1   4   3   4   0   0   0)

     celldm(1)=  10.661610  celldm(2)=   0.000000  celldm(3)=   0.000000
     celldm(4)=   0.000000  celldm(5)=   0.000000  celldm(6)=   0.000000

     crystal axes: (cart. coord. in units of alat)
               a(1) = (   0.000000   1.000000   0.000000 )  
               a(2) = (  -0.288675   0.500000   0.665692 )  
               a(3) = (   5.821916   0.000000   2.237581 )  

     reciprocal axes: (cart. coord. in units 2 pi/alat)
               b(1) = (  0.247436  1.000000 -0.643798 )  
               b(2) = ( -0.494872  0.000000  1.287597 )  
               b(3) = (  0.147227  0.000000  0.063844 )  


     PseudoPot. # 1 for Tm read from file:
     /home/p.schindler/q-e_7-1/PSPs/Vanderbilt_USPP_PBE/Tm.UPF
     MD5 check sum: ac5c967b64b838ec8adf491cc1cfa340
     Pseudo is Projector augmented-wave + core cor, Zval = 11.0
     Generated using "atomic" code by A. Dal Corso  v.5.1.2
     Shape of augmentation charge: PSQ
     Using radial grid of 1269 points,  6 beta functions with: 
                l(1) =   0
                l(2) =   0
                l(3) =   1
                l(4) =   1
                l(5) =   2
                l(6) =   2
     Q(r) pseudized with 0 coefficients 


     PseudoPot. # 2 for B  read from file:
     /home/p.schindler/q-e_7-1/PSPs/Vanderbilt_USPP_PBE/B.UPF
     MD5 check sum: cc6de2960df11db49a60e589f9ebb39b
     Pseudo is Ultrasoft + core correction, Zval =  3.0
     Generated by new atomic code, or converted to UPF format
     Using radial grid of  781 points,  4 beta functions with: 
                l(1) =   0
                l(2) =   0
                l(3) =   1
                l(4) =   1
     Q(r) pseudized with  8 coefficients,  rinner =    1.100   1.100   1.100


     atomic species   valence    mass     pseudopotential
        Tm1           11.00   168.93422     Tm( 1.00)
        B1             3.00    10.81000     B ( 1.00)

     No symmetry found



   Cartesian axes

     site n.     atom                  positions (alat units)
         1           Tm1 tau(   1) = (   1.2406795   1.0000000   1.1425317  )
         2           Tm1 tau(   2) = (   2.9727304   1.0000000   1.8082238  )
         3           Tm1 tau(   3) = (   1.2408528   1.0000000   0.4769062  )
         4           Tm1 tau(   4) = (   2.9729036   1.0000000   1.1425983  )
         5           Tm1 tau(   5) = (   1.5293547   0.5000000   1.1425317  )
         6           Tm1 tau(   6) = (   3.2614055   0.5000000   1.8082238  )
         7           Tm1 tau(   7) = (   1.8180298   1.0000000   1.1425317  )
         8           Tm1 tau(   8) = (   3.5500806   1.0000000   1.8082238  )
         9           Tm1 tau(   9) = (   2.1067050   0.5000000   1.1425317  )
        10           Tm1 tau(  10) = (   3.8387558   0.5000000   1.8082238  )
        11           Tm1 tau(  11) = (   2.3953801   1.0000000   1.1425317  )
        12           Tm1 tau(  12) = (   4.1274309   1.0000000   1.8082238  )
        13           Tm1 tau(  13) = (   2.6840552   0.5000000   1.1425317  )
        14           Tm1 tau(  14) = (   4.4161060   0.5000000   1.8082238  )
        15           B1  tau(  15) = (   1.8180298   0.6666667   0.8096857  )
        16           B1  tau(  16) = (   3.5500806   0.6666667   1.4753777  )
        17           B1  tau(  17) = (   1.5293547   0.1666667   0.8096857  )
        18           B1  tau(  18) = (   3.2614055   0.1666667   1.4753777  )
        19           B1  tau(  19) = (   2.1067050   0.1666667   0.8096857  )
        20           B1  tau(  20) = (   3.8387558   0.1666667   1.4753777  )
        21           B1  tau(  21) = (   2.1067050   1.1666667   1.4753777  )
        22           B1  tau(  22) = (   3.8387558   1.1666667   2.1410698  )
        23           B1  tau(  23) = (   2.3953801   0.6666667   1.4753777  )
        24           B1  tau(  24) = (   4.1274309   0.6666667   2.1410698  )
        25           B1  tau(  25) = (   2.6840552   1.1666667   1.4753777  )
        26           B1  tau(  26) = (   4.4161060   1.1666667   2.1410698  )
        27           B1  tau(  27) = (   1.2406795   0.6666667   0.8096857  )
        28           B1  tau(  28) = (   2.9727304   0.6666667   1.4753777  )
        29           B1  tau(  29) = (   1.8180298   0.3333333   0.8096857  )
        30           B1  tau(  30) = (   3.5500806   0.3333333   1.4753777  )
        31           B1  tau(  31) = (   1.5293547   0.8333333   0.8096857  )
        32           B1  tau(  32) = (   3.2614055   0.8333333   1.4753777  )
        33           B1  tau(  33) = (   2.1067050   0.8333333   0.8096857  )
        34           B1  tau(  34) = (   3.5500806   1.3333333   2.1410698  )
        35           B1  tau(  35) = (   2.1067050   0.8333333   1.4753777  )
        36           B1  tau(  36) = (   3.8387558   0.8333333   2.1410698  )
        37           B1  tau(  37) = (   2.3953801   1.3333333   1.4753777  )
        38           B1  tau(  38) = (   4.1274309   1.3333333   2.1410698  )
        39           B1  tau(  39) = (   2.6840552   0.8333333   1.4753777  )
        40           B1  tau(  40) = (   4.4161060   0.8333333   2.1410698  )
        41           B1  tau(  41) = (   1.2406795   0.3333333   0.8096857  )
        42           B1  tau(  42) = (   2.9727304   0.3333333   1.4753777  )

     number of k points=    86  Gaussian smearing, width (Ry)=  0.0147
                       cart. coord. in units 2pi/alat
        k(    1) = (   0.0000000   0.0000000   0.0000000), wk =   0.0119048
        k(    2) = (  -0.0353480   0.0000000   0.0919712), wk =   0.0238095
        k(    3) = (  -0.0706960   0.0000000   0.1839424), wk =   0.0238095
        k(    4) = (  -0.1060439   0.0000000   0.2759136), wk =   0.0238095
        k(    5) = (  -0.1413919   0.0000000   0.3678848), wk =   0.0238095
        k(    6) = (  -0.1767399   0.0000000   0.4598559), wk =   0.0238095
        k(    7) = (  -0.2120879   0.0000000   0.5518271), wk =   0.0238095
        k(    8) = (   0.2474358   0.0000000  -0.6437983), wk =   0.0119048
        k(    9) = (   0.0206197   0.0833333  -0.0536499), wk =   0.0238095
        k(   10) = (  -0.0147283   0.0833333   0.0383213), wk =   0.0238095
        k(   11) = (  -0.0500763   0.0833333   0.1302925), wk =   0.0238095
        k(   12) = (  -0.0854243   0.0833333   0.2222637), wk =   0.0238095
        k(   13) = (  -0.1207723   0.0833333   0.3142349), wk =   0.0238095
        k(   14) = (  -0.1561202   0.0833333   0.4062061), wk =   0.0238095
        k(   15) = (  -0.1914682   0.0833333   0.4981773), wk =   0.0238095
        k(   16) = (   0.2680555   0.0833333  -0.6974482), wk =   0.0238095
        k(   17) = (   0.2327075   0.0833333  -0.6054770), wk =   0.0238095
        k(   18) = (   0.1973595   0.0833333  -0.5135058), wk =   0.0238095
        k(   19) = (   0.1620116   0.0833333  -0.4215346), wk =   0.0238095
        k(   20) = (   0.1266636   0.0833333  -0.3295634), wk =   0.0238095
        k(   21) = (   0.0913156   0.0833333  -0.2375922), wk =   0.0238095
        k(   22) = (   0.0559676   0.0833333  -0.1456211), wk =   0.0238095
        k(   23) = (   0.0412393   0.1666667  -0.1072997), wk =   0.0238095
        k(   24) = (   0.0058913   0.1666667  -0.0153285), wk =   0.0238095
        k(   25) = (  -0.0294566   0.1666667   0.0766427), wk =   0.0238095
        k(   26) = (  -0.0648046   0.1666667   0.1686138), wk =   0.0238095
        k(   27) = (  -0.1001526   0.1666667   0.2605850), wk =   0.0238095
        k(   28) = (  -0.1355006   0.1666667   0.3525562), wk =   0.0238095
        k(   29) = (  -0.1708485   0.1666667   0.4445274), wk =   0.0238095
        k(   30) = (   0.2886751   0.1666667  -0.7510980), wk =   0.0238095
        k(   31) = (   0.2533272   0.1666667  -0.6591269), wk =   0.0238095
        k(   32) = (   0.2179792   0.1666667  -0.5671557), wk =   0.0238095
        k(   33) = (   0.1826312   0.1666667  -0.4751845), wk =   0.0238095
        k(   34) = (   0.1472832   0.1666667  -0.3832133), wk =   0.0238095
        k(   35) = (   0.1119353   0.1666667  -0.2912421), wk =   0.0238095
        k(   36) = (   0.0765873   0.1666667  -0.1992709), wk =   0.0238095
        k(   37) = (   0.0618590   0.2500000  -0.1609496), wk =   0.0238095
        k(   38) = (   0.0265110   0.2500000  -0.0689784), wk =   0.0238095
        k(   39) = (  -0.0088370   0.2500000   0.0229928), wk =   0.0238095
        k(   40) = (  -0.0441850   0.2500000   0.1149640), wk =   0.0238095
        k(   41) = (  -0.0795329   0.2500000   0.2069352), wk =   0.0238095
        k(   42) = (  -0.1148809   0.2500000   0.2989064), wk =   0.0238095
        k(   43) = (  -0.1502289   0.2500000   0.3908776), wk =   0.0238095
        k(   44) = (   0.3092948   0.2500000  -0.8047479), wk =   0.0238095
        k(   45) = (   0.2739468   0.2500000  -0.7127767), wk =   0.0238095
        k(   46) = (   0.2385988   0.2500000  -0.6208055), wk =   0.0238095
        k(   47) = (   0.2032509   0.2500000  -0.5288343), wk =   0.0238095
        k(   48) = (   0.1679029   0.2500000  -0.4368632), wk =   0.0238095
        k(   49) = (   0.1325549   0.2500000  -0.3448920), wk =   0.0238095
        k(   50) = (   0.0972069   0.2500000  -0.2529208), wk =   0.0238095
        k(   51) = (   0.0824786   0.3333333  -0.2145994), wk =   0.0238095
        k(   52) = (   0.0471306   0.3333333  -0.1226283), wk =   0.0238095
        k(   53) = (   0.0117827   0.3333333  -0.0306571), wk =   0.0238095
        k(   54) = (  -0.0235653   0.3333333   0.0613141), wk =   0.0238095
        k(   55) = (  -0.0589133   0.3333333   0.1532853), wk =   0.0238095
        k(   56) = (  -0.0942613   0.3333333   0.2452565), wk =   0.0238095
        k(   57) = (  -0.1296092   0.3333333   0.3372277), wk =   0.0238095
        k(   58) = (   0.3299144   0.3333333  -0.8583978), wk =   0.0238095
        k(   59) = (   0.2945665   0.3333333  -0.7664266), wk =   0.0238095
        k(   60) = (   0.2592185   0.3333333  -0.6744554), wk =   0.0238095
        k(   61) = (   0.2238705   0.3333333  -0.5824842), wk =   0.0238095
        k(   62) = (   0.1885225   0.3333333  -0.4905130), wk =   0.0238095
        k(   63) = (   0.1531746   0.3333333  -0.3985418), wk =   0.0238095
        k(   64) = (   0.1178266   0.3333333  -0.3065706), wk =   0.0238095
        k(   65) = (   0.1030983   0.4166667  -0.2682493), wk =   0.0238095
        k(   66) = (   0.0677503   0.4166667  -0.1762781), wk =   0.0238095
        k(   67) = (   0.0324023   0.4166667  -0.0843069), wk =   0.0238095
        k(   68) = (  -0.0029457   0.4166667   0.0076643), wk =   0.0238095
        k(   69) = (  -0.0382936   0.4166667   0.0996355), wk =   0.0238095
        k(   70) = (  -0.0736416   0.4166667   0.1916066), wk =   0.0238095
        k(   71) = (  -0.1089896   0.4166667   0.2835778), wk =   0.0238095
        k(   72) = (   0.3505341   0.4166667  -0.9120476), wk =   0.0238095
        k(   73) = (   0.3151861   0.4166667  -0.8200764), wk =   0.0238095
        k(   74) = (   0.2798381   0.4166667  -0.7281053), wk =   0.0238095
        k(   75) = (   0.2444902   0.4166667  -0.6361341), wk =   0.0238095
        k(   76) = (   0.2091422   0.4166667  -0.5441629), wk =   0.0238095
        k(   77) = (   0.1737942   0.4166667  -0.4521917), wk =   0.0238095
        k(   78) = (   0.1384462   0.4166667  -0.3602205), wk =   0.0238095
        k(   79) = (  -0.1237179  -0.5000000   0.3218992), wk =   0.0119048
        k(   80) = (  -0.1590659  -0.5000000   0.4138704), wk =   0.0238095
        k(   81) = (  -0.1944139  -0.5000000   0.5058415), wk =   0.0238095
        k(   82) = (  -0.2297618  -0.5000000   0.5978127), wk =   0.0238095
        k(   83) = (  -0.2651098  -0.5000000   0.6897839), wk =   0.0238095
        k(   84) = (  -0.3004578  -0.5000000   0.7817551), wk =   0.0238095
        k(   85) = (  -0.3358058  -0.5000000   0.8737263), wk =   0.0238095
        k(   86) = (   0.1237179  -0.5000000  -0.3218992), wk =   0.0119048

     Dense  grid:  1445367 G-vectors     FFT dimensions: (  90,  75, 540)

     Smooth grid:   365587 G-vectors     FFT dimensions: (  54,  48, 360)

     Estimated max dynamical RAM per process >     817.28 MB

     Estimated total dynamical RAM >      15.96 GB

     Initial potential from superposition of free atoms

     starting charge     237.7139, renormalised to     238.0000

     negative rho (up, down):  2.321E-04 0.000E+00
 
     Adding external electric field

     Computed dipole along edir(3) : 
        Dipole               -0.1315 Ry au,         -0.3343 Debye
        Dipole field         -0.0003 Ry au, 
 
        Potential amp.        0.0391 Ry
        Total length         64.8351 bohr
 
     Starting wfcs are  294 randomized atomic wfcs
     Checking if some PAW data can be deallocated... 

     total cpu time spent up to now is       63.8 secs

     Self-consistent Calculation

     iteration #  1     ecut=    62.47 Ry     beta= 0.15
     Davidson diagonalization with overlap
     ethr =  1.00E-02,  avg # of iterations =  2.0

     negative rho (up, down):  2.271E-08 0.000E+00
 
     Adding external electric field

     Computed dipole along edir(3) : 
        Dipole               -0.1441 Ry au,         -0.3663 Debye
        Dipole field         -0.0003 Ry au, 
 
        Potential amp.        0.0429 Ry
        Total length         64.8351 bohr
 

     total cpu time spent up to now is      155.4 secs

     total energy              =   -9066.24691197 Ry
     estimated scf accuracy    <      30.01236687 Ry

     iteration #  2     ecut=    62.47 Ry     beta= 0.15
     Davidson diagonalization with overlap
     ethr =  1.00E-02,  avg # of iterations =  1.0
 
     Adding external electric field

     Computed dipole along edir(3) : 
        Dipole               -0.2957 Ry au,         -0.7517 Debye
        Dipole field         -0.0007 Ry au, 
 
        Potential amp.        0.0879 Ry
        Total length         64.8351 bohr
 

     total cpu time spent up to now is      231.7 secs

     total energy              =   -9063.45520659 Ry
     estimated scf accuracy    <      25.58408981 Ry

     iteration #  3     ecut=    62.47 Ry     beta= 0.15
     Davidson diagonalization with overlap
     ethr =  1.00E-02,  avg # of iterations =  2.0
 
     Adding external electric field

     Computed dipole along edir(3) : 
        Dipole               -0.2496 Ry au,         -0.6343 Debye
        Dipole field         -0.0006 Ry au, 
 
        Potential amp.        0.0742 Ry
        Total length         64.8351 bohr
 

     total cpu time spent up to now is      317.2 secs

     total energy              =   -9064.68688504 Ry
     estimated scf accuracy    <      21.12819832 Ry

     iteration #  4     ecut=    62.47 Ry     beta= 0.15
     Davidson diagonalization with overlap
     ethr =  8.88E-03,  avg # of iterations =  1.0
 
     Adding external electric field

     Computed dipole along edir(3) : 
        Dipole               -0.2909 Ry au,         -0.7393 Debye
        Dipole field         -0.0007 Ry au, 
 
        Potential amp.        0.0865 Ry
        Total length         64.8351 bohr
 

     total cpu time spent up to now is      393.7 secs

     total energy              =   -9065.18338652 Ry
     estimated scf accuracy    <       2.54832290 Ry

     iteration #  5     ecut=    62.47 Ry     beta= 0.15
     Davidson diagonalization with overlap
     ethr =  1.07E-03,  avg # of iterations =  2.0
 
     Adding external electric field

     Computed dipole along edir(3) : 
        Dipole               -0.3809 Ry au,         -0.9682 Debye
        Dipole field         -0.0009 Ry au, 
 
        Potential amp.        0.1133 Ry
        Total length         64.8351 bohr
 

     total cpu time spent up to now is      481.5 secs

     total energy              =   -9064.96272530 Ry
     estimated scf accuracy    <      24.06556593 Ry

     iteration #  6     ecut=    62.47 Ry     beta= 0.15
     Davidson diagonalization with overlap
     ethr =  1.07E-03,  avg # of iterations =  1.0
 
     Adding external electric field

     Computed dipole along edir(3) : 
        Dipole               -0.4140 Ry au,         -1.0523 Debye
        Dipole field         -0.0009 Ry au, 
 
        Potential amp.        0.1231 Ry
        Total length         64.8351 bohr
 

     total cpu time spent up to now is      557.8 secs

     total energy              =   -9065.01535305 Ry
     estimated scf accuracy    <      11.05319835 Ry

     iteration #  7     ecut=    62.47 Ry     beta= 0.15
     Davidson diagonalization with overlap
     ethr =  1.07E-03,  avg # of iterations =  1.0
 
     Adding external electric field

     Computed dipole along edir(3) : 
        Dipole               -0.7093 Ry au,         -1.8030 Debye
        Dipole field         -0.0016 Ry au, 
 
        Potential amp.        0.2109 Ry
        Total length         64.8351 bohr
 

     total cpu time spent up to now is      634.2 secs

     total energy              =   -9064.78031731 Ry
     estimated scf accuracy    <       8.74899832 Ry

     iteration #  8     ecut=    62.47 Ry     beta= 0.15
     Davidson diagonalization with overlap
     ethr =  1.07E-03,  avg # of iterations =  3.5
 
     Adding external electric field

     Computed dipole along edir(3) : 
        Dipole               -0.7792 Ry au,         -1.9806 Debye
        Dipole field         -0.0018 Ry au, 
 
        Potential amp.        0.2317 Ry
        Total length         64.8351 bohr
 

     total cpu time spent up to now is      724.7 secs

     total energy              =   -9064.98416179 Ry
     estimated scf accuracy    <       0.80339186 Ry

     iteration #  9     ecut=    62.47 Ry     beta= 0.15
     Davidson diagonalization with overlap
     ethr =  3.38E-04,  avg # of iterations =  7.8
 
     Adding external electric field

     Computed dipole along edir(3) : 
        Dipole               -0.7628 Ry au,         -1.9388 Debye
        Dipole field         -0.0017 Ry au, 
 
        Potential amp.        0.2268 Ry
        Total length         64.8351 bohr
 

     total cpu time spent up to now is      832.8 secs

     total energy              =   -9064.98287547 Ry
     estimated scf accuracy    <       0.91860322 Ry

     iteration # 10     ecut=    62.47 Ry     beta= 0.15
     Davidson diagonalization with overlap
     ethr =  3.38E-04,  avg # of iterations =  1.1

     negative rho (up, down):  2.324E-02 0.000E+00
 
     Adding external electric field

     Computed dipole along edir(3) : 
        Dipole               -1.2885 Ry au,         -3.2751 Debye
        Dipole field         -0.0030 Ry au, 
 
        Potential amp.        0.3832 Ry
        Total length         64.8351 bohr
 

     total cpu time spent up to now is      909.8 secs

     total energy              =   -9064.90669895 Ry
     estimated scf accuracy    <       1.00039742 Ry

     iteration # 11     ecut=    62.47 Ry     beta= 0.15
     Davidson diagonalization with overlap
     ethr =  3.38E-04,  avg # of iterations =  3.5

     negative rho (up, down):  3.386E-02 0.000E+00
 
     Adding external electric field

     Computed dipole along edir(3) : 
        Dipole               -1.3334 Ry au,         -3.3892 Debye
        Dipole field         -0.0031 Ry au, 
 
        Potential amp.        0.3965 Ry
        Total length         64.8351 bohr
 

     total cpu time spent up to now is      999.3 secs

     total energy              =   -9064.91734711 Ry
     estimated scf accuracy    <       0.54677157 Ry

     iteration # 12     ecut=    62.47 Ry     beta= 0.15
     Davidson diagonalization with overlap
     ethr =  2.30E-04,  avg # of iterations =  1.2

     negative rho (up, down):  4.827E-04 0.000E+00
 
     Adding external electric field

     Computed dipole along edir(3) : 
        Dipole               -1.2730 Ry au,         -3.2355 Debye
        Dipole field         -0.0029 Ry au, 
 
        Potential amp.        0.3785 Ry
        Total length         64.8351 bohr
 

     total cpu time spent up to now is     1077.5 secs

     total energy              =   -9064.88294759 Ry
     estimated scf accuracy    <       0.48403010 Ry

     iteration # 13     ecut=    62.47 Ry     beta= 0.15
     Davidson diagonalization with overlap
     ethr =  2.03E-04,  avg # of iterations =  1.0

     negative rho (up, down):  1.754E-02 0.000E+00
 
     Adding external electric field

     Computed dipole along edir(3) : 
        Dipole               -1.3403 Ry au,         -3.4068 Debye
        Dipole field         -0.0031 Ry au, 
 
        Potential amp.        0.3986 Ry
        Total length         64.8351 bohr
 

     total cpu time spent up to now is     1154.4 secs

     total energy              =   -9064.83120561 Ry
     estimated scf accuracy    <       0.65454651 Ry

     iteration # 14     ecut=    62.47 Ry     beta= 0.15
     Davidson diagonalization with overlap
     ethr =  2.03E-04,  avg # of iterations =  2.2

     negative rho (up, down):  2.043E-02 0.000E+00
 
     Adding external electric field

     Computed dipole along edir(3) : 
        Dipole               -1.3447 Ry au,         -3.4178 Debye
        Dipole field         -0.0031 Ry au, 
 
        Potential amp.        0.3999 Ry
        Total length         64.8351 bohr
 

     total cpu time spent up to now is     1240.7 secs

     total energy              =   -9064.86663736 Ry
     estimated scf accuracy    <       0.20234454 Ry

     iteration # 15     ecut=    62.47 Ry     beta= 0.15
     Davidson diagonalization with overlap
     ethr =  8.50E-05,  avg # of iterations =  2.8

     negative rho (up, down):  6.545E-03 0.000E+00
 
     Adding external electric field

     Computed dipole along edir(3) : 
        Dipole               -1.2757 Ry au,         -3.2424 Debye
        Dipole field         -0.0029 Ry au, 
 
        Potential amp.        0.3793 Ry
        Total length         64.8351 bohr
 

     total cpu time spent up to now is     1325.2 secs

     total energy              =   -9064.86549729 Ry
     estimated scf accuracy    <       0.36336060 Ry

     iteration # 16     ecut=    62.47 Ry     beta= 0.15
     Davidson diagonalization with overlap
     ethr =  8.50E-05,  avg # of iterations =  1.0

     negative rho (up, down):  2.850E-04 0.000E+00
 
     Adding external electric field

     Computed dipole along edir(3) : 
        Dipole               -1.2508 Ry au,         -3.1793 Debye
        Dipole field         -0.0029 Ry au, 
 
        Potential amp.        0.3720 Ry
        Total length         64.8351 bohr
 

     total cpu time spent up to now is     1402.1 secs

     total energy              =   -9064.85910153 Ry
     estimated scf accuracy    <       0.25802146 Ry

     iteration # 17     ecut=    62.47 Ry     beta= 0.15
     Davidson diagonalization with overlap
     ethr =  8.50E-05,  avg # of iterations =  1.2

     negative rho (up, down):  7.854E-03 0.000E+00
 
     Adding external electric field

     Computed dipole along edir(3) : 
        Dipole               -1.2687 Ry au,         -3.2248 Debye
        Dipole field         -0.0029 Ry au, 
 
        Potential amp.        0.3773 Ry
        Total length         64.8351 bohr
 

     total cpu time spent up to now is     1479.4 secs

     total energy              =   -9064.85813127 Ry
     estimated scf accuracy    <       0.07683461 Ry

     iteration # 18     ecut=    62.47 Ry     beta= 0.15
     Davidson diagonalization with overlap
     ethr =  3.23E-05,  avg # of iterations =  3.7

     negative rho (up, down):  2.642E-02 0.000E+00
 
     Adding external electric field

     Computed dipole along edir(3) : 
        Dipole               -1.0086 Ry au,         -2.5635 Debye
        Dipole field         -0.0023 Ry au, 
 
        Potential amp.        0.2999 Ry
        Total length         64.8351 bohr
 

     total cpu time spent up to now is     1568.7 secs

     total energy              =   -9064.85045185 Ry
     estimated scf accuracy    <       0.09575970 Ry

     iteration # 19     ecut=    62.47 Ry     beta= 0.15
     Davidson diagonalization with overlap
     ethr =  3.23E-05,  avg # of iterations =  3.0

     negative rho (up, down):  2.300E-02 0.000E+00
 
     Adding external electric field

     Computed dipole along edir(3) : 
        Dipole               -1.0155 Ry au,         -2.5811 Debye
        Dipole field         -0.0023 Ry au, 
 
        Potential amp.        0.3020 Ry
        Total length         64.8351 bohr
 

     total cpu time spent up to now is     1657.4 secs

     total energy              =   -9064.85308908 Ry
     estimated scf accuracy    <       0.34397772 Ry

     iteration # 20     ecut=    62.47 Ry     beta= 0.15
     Davidson diagonalization with overlap
     ethr =  3.23E-05,  avg # of iterations =  1.0

     negative rho (up, down):  3.362E-02 0.000E+00
 
     Adding external electric field

     Computed dipole along edir(3) : 
        Dipole               -0.9364 Ry au,         -2.3800 Debye
        Dipole field         -0.0021 Ry au, 
 
        Potential amp.        0.2784 Ry
        Total length         64.8351 bohr
 

     total cpu time spent up to now is     1734.1 secs

     total energy              =   -9064.84954542 Ry
     estimated scf accuracy    <       0.15280504 Ry

     iteration # 21     ecut=    62.47 Ry     beta= 0.15
     Davidson diagonalization with overlap
     ethr =  3.23E-05,  avg # of iterations =  1.4

     negative rho (up, down):  1.431E-02 0.000E+00
 
     Adding external electric field

     Computed dipole along edir(3) : 
        Dipole               -0.7519 Ry au,         -1.9112 Debye
        Dipole field         -0.0017 Ry au, 
 
        Potential amp.        0.2236 Ry
        Total length         64.8351 bohr
 

     total cpu time spent up to now is     1812.9 secs

     total energy              =   -9064.84834453 Ry
     estimated scf accuracy    <       0.03510914 Ry

     iteration # 22     ecut=    62.47 Ry     beta= 0.15
     Davidson diagonalization with overlap
     ethr =  1.48E-05,  avg # of iterations =  4.7

     negative rho (up, down):  3.305E-02 0.000E+00
 
     Adding external electric field

     Computed dipole along edir(3) : 
        Dipole               -0.5304 Ry au,         -1.3482 Debye
        Dipole field         -0.0012 Ry au, 
 
        Potential amp.        0.1577 Ry
        Total length         64.8351 bohr
 

     total cpu time spent up to now is     1906.3 secs

     total energy              =   -9064.83738990 Ry
     estimated scf accuracy    <       0.08120426 Ry

     iteration # 23     ecut=    62.47 Ry     beta= 0.15
     Davidson diagonalization with overlap
     ethr =  1.48E-05,  avg # of iterations = 10.1

     negative rho (up, down):  3.472E-02 0.000E+00
 
     Adding external electric field

     Computed dipole along edir(3) : 
        Dipole               -0.5037 Ry au,         -1.2804 Debye
        Dipole field         -0.0012 Ry au, 
 
        Potential amp.        0.1498 Ry
        Total length         64.8351 bohr
 

     total cpu time spent up to now is     2040.7 secs

     total energy              =   -9064.83796621 Ry
     estimated scf accuracy    <       0.04387174 Ry

     iteration # 24     ecut=    62.47 Ry     beta= 0.15
     Davidson diagonalization with overlap
     ethr =  1.48E-05,  avg # of iterations =  2.5

     negative rho (up, down):  2.034E-02 0.000E+00
 
     Adding external electric field

     Computed dipole along edir(3) : 
        Dipole               -0.5816 Ry au,         -1.4784 Debye
        Dipole field         -0.0013 Ry au, 
 
        Potential amp.        0.1730 Ry
        Total length         64.8351 bohr
 

     total cpu time spent up to now is     2126.0 secs

     total energy              =   -9064.83672716 Ry
     estimated scf accuracy    <       0.14056446 Ry

     iteration # 25     ecut=    62.47 Ry     beta= 0.15
     Davidson diagonalization with overlap
     ethr =  1.48E-05,  avg # of iterations =  3.6

     negative rho (up, down):  1.648E-02 0.000E+00
 
     Adding external electric field

     Computed dipole along edir(3) : 
        Dipole               -0.5814 Ry au,         -1.4777 Debye
        Dipole field         -0.0013 Ry au, 
 
        Potential amp.        0.1729 Ry
        Total length         64.8351 bohr
 

     total cpu time spent up to now is     2216.1 secs

     total energy              =   -9064.83804025 Ry
     estimated scf accuracy    <       0.03418288 Ry

     iteration # 26     ecut=    62.47 Ry     beta= 0.15
     Davidson diagonalization with overlap
     ethr =  1.44E-05,  avg # of iterations =  1.0

     negative rho (up, down):  1.201E-02 0.000E+00
 
     Adding external electric field

     Computed dipole along edir(3) : 
        Dipole               -0.5554 Ry au,         -1.4116 Debye
        Dipole field         -0.0013 Ry au, 
 
        Potential amp.        0.1651 Ry
        Total length         64.8351 bohr
 

     total cpu time spent up to now is     2293.0 secs

     total energy              =   -9064.83821700 Ry
     estimated scf accuracy    <       0.00277781 Ry

     iteration # 27     ecut=    62.47 Ry     beta= 0.15
     Davidson diagonalization with overlap
     c_bands:  1 eigenvalues not converged
     c_bands:  1 eigenvalues not converged
     c_bands:  1 eigenvalues not converged
     ethr =  1.17E-06,  avg # of iterations =  9.4

     negative rho (up, down):  4.613E-03 0.000E+00
 
     Adding external electric field

     Computed dipole along edir(3) : 
        Dipole               -0.5499 Ry au,         -1.3976 Debye
        Dipole field         -0.0013 Ry au, 
 
        Potential amp.        0.1635 Ry
        Total length         64.8351 bohr
 

     total cpu time spent up to now is     2406.3 secs

     total energy              =   -9064.83828977 Ry
     estimated scf accuracy    <       0.00192193 Ry

     iteration # 28     ecut=    62.47 Ry     beta= 0.15
     Davidson diagonalization with overlap
     c_bands:  1 eigenvalues not converged
     c_bands:  1 eigenvalues not converged
     c_bands:  1 eigenvalues not converged
     ethr =  8.08E-07,  avg # of iterations =  7.2

     negative rho (up, down):  2.169E-03 0.000E+00
 
     Adding external electric field

     Computed dipole along edir(3) : 
        Dipole               -0.5737 Ry au,         -1.4583 Debye
        Dipole field         -0.0013 Ry au, 
 
        Potential amp.        0.1706 Ry
        Total length         64.8351 bohr
 

     total cpu time spent up to now is     2510.0 secs

     total energy              =   -9064.83828400 Ry
     estimated scf accuracy    <       0.00667740 Ry

     iteration # 29     ecut=    62.47 Ry     beta= 0.15
     Davidson diagonalization with overlap
     c_bands:  1 eigenvalues not converged
     c_bands:  1 eigenvalues not converged
     ethr =  8.08E-07,  avg # of iterations =  7.9

     negative rho (up, down):  1.561E-03 0.000E+00
 
     Adding external electric field

     Computed dipole along edir(3) : 
        Dipole               -0.5766 Ry au,         -1.4655 Debye
        Dipole field         -0.0013 Ry au, 
 
        Potential amp.        0.1715 Ry
        Total length         64.8351 bohr
 

     total cpu time spent up to now is     2613.3 secs

     total energy              =   -9064.83833323 Ry
     estimated scf accuracy    <       0.00037021 Ry

     iteration # 30     ecut=    62.47 Ry     beta= 0.15
     Davidson diagonalization with overlap
     ethr =  1.56E-07,  avg # of iterations =  1.3

     negative rho (up, down):  3.996E-04 0.000E+00
 
     Adding external electric field

     Computed dipole along edir(3) : 
        Dipole               -0.5922 Ry au,         -1.5052 Debye
        Dipole field         -0.0014 Ry au, 
 
        Potential amp.        0.1761 Ry
        Total length         64.8351 bohr
 

     total cpu time spent up to now is     2692.6 secs

     total energy              =   -9064.83842963 Ry
     estimated scf accuracy    <       0.00035386 Ry

     iteration # 31     ecut=    62.47 Ry     beta= 0.15
     Davidson diagonalization with overlap
     c_bands:  1 eigenvalues not converged
     c_bands:  1 eigenvalues not converged
     c_bands:  1 eigenvalues not converged
     c_bands:  1 eigenvalues not converged
     ethr =  1.49E-07,  avg # of iterations =  7.8

     negative rho (up, down):  9.346E-05 0.000E+00
 
     Adding external electric field

     Computed dipole along edir(3) : 
        Dipole               -0.5953 Ry au,         -1.5132 Debye
        Dipole field         -0.0014 Ry au, 
 
        Potential amp.        0.1770 Ry
        Total length         64.8351 bohr
 

     total cpu time spent up to now is     2795.0 secs

     total energy              =   -9064.83848871 Ry
     estimated scf accuracy    <       0.00016228 Ry

     iteration # 32     ecut=    62.47 Ry     beta= 0.15
     Davidson diagonalization with overlap
     c_bands:  1 eigenvalues not converged
     c_bands:  1 eigenvalues not converged
     c_bands:  1 eigenvalues not converged
     c_bands:  1 eigenvalues not converged
     ethr =  6.82E-08,  avg # of iterations =  7.8

     negative rho (up, down):  4.617E-04 0.000E+00
 
     Adding external electric field

     Computed dipole along edir(3) : 
        Dipole               -0.5845 Ry au,         -1.4858 Debye
        Dipole field         -0.0013 Ry au, 
 
        Potential amp.        0.1738 Ry
        Total length         64.8351 bohr
 

     total cpu time spent up to now is     2899.0 secs

     total energy              =   -9064.83850449 Ry
     estimated scf accuracy    <       0.00019973 Ry

     iteration # 33     ecut=    62.47 Ry     beta= 0.15
     Davidson diagonalization with overlap
     ethr =  6.82E-08,  avg # of iterations =  5.9

     negative rho (up, down):  1.943E-04 0.000E+00
 
     Adding external electric field

     Computed dipole along edir(3) : 
        Dipole               -0.5864 Ry au,         -1.4905 Debye
        Dipole field         -0.0013 Ry au, 
 
        Potential amp.        0.1744 Ry
        Total length         64.8351 bohr
 

     total cpu time spent up to now is     2998.1 secs

     total energy              =   -9064.83850920 Ry
     estimated scf accuracy    <       0.00046187 Ry

     iteration # 34     ecut=    62.47 Ry     beta= 0.15
     Davidson diagonalization with overlap
     ethr =  6.82E-08,  avg # of iterations =  1.0

     negative rho (up, down):  5.111E-04 0.000E+00
 
     Adding external electric field

     Computed dipole along edir(3) : 
        Dipole               -0.5871 Ry au,         -1.4923 Debye
        Dipole field         -0.0013 Ry au, 
 
        Potential amp.        0.1746 Ry
        Total length         64.8351 bohr
 

     total cpu time spent up to now is     3075.0 secs

     total energy              =   -9064.83850922 Ry
     estimated scf accuracy    <       0.00014352 Ry

     iteration # 35     ecut=    62.47 Ry     beta= 0.15
     Davidson diagonalization with overlap
     ethr =  6.03E-08,  avg # of iterations =  1.2

     negative rho (up, down):  4.154E-04 0.000E+00
 
     Adding external electric field

     Computed dipole along edir(3) : 
        Dipole               -0.5872 Ry au,         -1.4926 Debye
        Dipole field         -0.0013 Ry au, 
 
        Potential amp.        0.1746 Ry
        Total length         64.8351 bohr
 

     total cpu time spent up to now is     3153.8 secs

     total energy              =   -9064.83851034 Ry
     estimated scf accuracy    <       0.00004354 Ry

     iteration # 36     ecut=    62.47 Ry     beta= 0.15
     Davidson diagonalization with overlap
     ethr =  1.83E-08,  avg # of iterations =  1.0

     negative rho (up, down):  4.158E-04 0.000E+00
 
     Adding external electric field

     Computed dipole along edir(3) : 
        Dipole               -0.5885 Ry au,         -1.4957 Debye
        Dipole field         -0.0013 Ry au, 
 
        Potential amp.        0.1750 Ry
        Total length         64.8351 bohr
 

     total cpu time spent up to now is     3231.0 secs

     total energy              =   -9064.83850966 Ry
     estimated scf accuracy    <       0.00004374 Ry

     iteration # 37     ecut=    62.47 Ry     beta= 0.15
     Davidson diagonalization with overlap
     ethr =  1.83E-08,  avg # of iterations =  1.0

     negative rho (up, down):  7.426E-04 0.000E+00
 
     Adding external electric field

     Computed dipole along edir(3) : 
        Dipole               -0.5914 Ry au,         -1.5033 Debye
        Dipole field         -0.0014 Ry au, 
 
        Potential amp.        0.1759 Ry
        Total length         64.8351 bohr
 

     total cpu time spent up to now is     3308.0 secs

     total energy              =   -9064.83850925 Ry
     estimated scf accuracy    <       0.00002953 Ry

     iteration # 38     ecut=    62.47 Ry     beta= 0.15
     Davidson diagonalization with overlap
     ethr =  1.24E-08,  avg # of iterations =  1.3

     negative rho (up, down):  9.375E-04 0.000E+00
 
     Adding external electric field

     Computed dipole along edir(3) : 
        Dipole               -0.5908 Ry au,         -1.5016 Debye
        Dipole field         -0.0014 Ry au, 
 
        Potential amp.        0.1757 Ry
        Total length         64.8351 bohr
 

     total cpu time spent up to now is     3387.5 secs

     total energy              =   -9064.83851086 Ry
     estimated scf accuracy    <       0.00001372 Ry

     iteration # 39     ecut=    62.47 Ry     beta= 0.15
     Davidson diagonalization with overlap
     ethr =  5.77E-09,  avg # of iterations =  1.9

     negative rho (up, down):  3.360E-04 0.000E+00
 
     Adding external electric field

     Computed dipole along edir(3) : 
        Dipole               -0.5925 Ry au,         -1.5060 Debye
        Dipole field         -0.0014 Ry au, 
 
        Potential amp.        0.1762 Ry
        Total length         64.8351 bohr
 

     total cpu time spent up to now is     3472.0 secs

     total energy              =   -9064.83850615 Ry
     estimated scf accuracy    <       0.00001074 Ry

     iteration # 40     ecut=    62.47 Ry     beta= 0.15
     Davidson diagonalization with overlap
     ethr =  4.51E-09,  avg # of iterations =  1.5

     negative rho (up, down):  9.180E-05 0.000E+00
 
     Adding external electric field

     Computed dipole along edir(3) : 
        Dipole               -0.5926 Ry au,         -1.5062 Debye
        Dipole field         -0.0014 Ry au, 
 
        Potential amp.        0.1762 Ry
        Total length         64.8351 bohr
 

     total cpu time spent up to now is     3553.0 secs

     total energy              =   -9064.83850447 Ry
     estimated scf accuracy    <       0.00000325 Ry

     iteration # 41     ecut=    62.47 Ry     beta= 0.15
     Davidson diagonalization with overlap
     ethr =  1.37E-09,  avg # of iterations =  2.2

     negative rho (up, down):  6.800E-05 0.000E+00
 
     Adding external electric field

     Computed dipole along edir(3) : 
        Dipole               -0.5928 Ry au,         -1.5068 Debye
        Dipole field         -0.0014 Ry au, 
 
        Potential amp.        0.1763 Ry
        Total length         64.8351 bohr
 

     total cpu time spent up to now is     3640.8 secs

     total energy              =   -9064.83850514 Ry
     estimated scf accuracy    <       0.00000179 Ry

     iteration # 42     ecut=    62.47 Ry     beta= 0.15
     Davidson diagonalization with overlap
     ethr =  7.51E-10,  avg # of iterations =  1.1

     negative rho (up, down):  2.943E-05 0.000E+00
 
     Adding external electric field

     Computed dipole along edir(3) : 
        Dipole               -0.5939 Ry au,         -1.5096 Debye
        Dipole field         -0.0014 Ry au, 
 
        Potential amp.        0.1766 Ry
        Total length         64.8351 bohr
 

     total cpu time spent up to now is     3718.8 secs

     total energy              =   -9064.83850722 Ry
     estimated scf accuracy    <       0.00000165 Ry

     iteration # 43     ecut=    62.47 Ry     beta= 0.15
     Davidson diagonalization with overlap
     ethr =  6.93E-10,  avg # of iterations =  2.5

     negative rho (up, down):  5.995E-05 0.000E+00
 
     Adding external electric field

     Computed dipole along edir(3) : 
        Dipole               -0.6061 Ry au,         -1.5406 Debye
        Dipole field         -0.0014 Ry au, 
 
        Potential amp.        0.1802 Ry
        Total length         64.8351 bohr
 

     total cpu time spent up to now is     3808.5 secs

     End of self-consistent calculation

          k = 0.0000 0.0000 0.0000 ( 45683 PWs)   bands (ev):

   -46.5671 -45.5077 -45.0768 -44.9912 -44.9022 -44.8889 -44.8520 -44.8333
   -44.8303 -44.8125 -44.8096 -44.7923 -44.7870 -44.7827 -19.5752 -19.4193
   -19.3035 -18.5582 -18.5478 -18.3757 -18.3139 -18.2854 -18.2234 -18.2087
   -18.1853 -18.1284 -18.1193 -18.0754 -18.0428 -18.0301 -18.0205 -18.0159
   -17.9479 -17.9354 -17.9304 -17.9295 -17.9217 -17.9019 -17.8908 -17.8876
   -17.8701 -17.8636 -17.8472 -17.8338 -17.8264 -17.8144 -17.7856 -17.7411
   -17.7010 -17.6554 -17.6098 -17.6017 -17.5476 -17.4895 -17.4731 -17.4385
    -5.1922  -4.9781  -4.5854  -4.0759  -3.4913  -2.8724  -2.2634  -2.2172
    -2.0699  -1.7733  -1.7045  -1.3665  -1.2124  -0.8654  -0.7896  -0.4215
    -0.2857  -0.0999   0.1537   0.3115   0.3520   1.0278   1.7421   1.9519
     1.9743   2.1689   2.2348   2.4934   2.5395   2.6293   2.9592   3.0198
     3.2758   3.2897   3.3800   3.6533   3.7004   3.8740   4.0051   4.0461
     4.0644   4.2379   4.2619   4.3433   4.4552   4.5172   4.5367   4.6960
     4.7904   4.8194   4.8715   4.9335   5.0137   5.0183   5.0431   5.0975
     5.1444   5.1550   5.1753   5.2737   5.3280   5.4937   5.5557   5.8104
     5.8185   5.9794   6.3637   6.3749   6.8072   6.8730   7.1162   7.1493
     7.5504   7.9112   8.2644   8.7103   9.0494   9.1176   9.1998   9.7869
     9.7892   9.9801  10.3680  10.6505  10.7407  10.8127  10.9353  10.9775
    11.1393  11.3032  11.4180  11.4390  11.5015

          k =-0.0353 0.0000 0.0920 ( 45667 PWs)   bands (ev):

   -46.5670 -45.5077 -45.0768 -44.9912 -44.9021 -44.8888 -44.8518 -44.8334
   -44.8301 -44.8126 -44.8096 -44.7924 -44.7873 -44.7828 -19.5753 -19.4197
   -19.3042 -18.5594 -18.5480 -18.3778 -18.3163 -18.2874 -18.2240 -18.2103
   -18.1857 -18.1285 -18.1203 -18.0747 -18.0453 -18.0306 -18.0219 -18.0183
   -17.9626 -17.9449 -17.9305 -17.9292 -17.9252 -17.9051 -17.8973 -17.8897
   -17.8804 -17.8726 -17.8482 -17.8188 -17.8142 -17.7860 -17.7853 -17.7410
   -17.7005 -17.6566 -17.6091 -17.6008 -17.5467 -17.4887 -17.4722 -17.4376
    -5.1353  -4.9236  -4.5353  -4.0322  -3.4574  -2.8533  -2.2632  -2.1804
    -2.0345  -1.7403  -1.7160  -1.3374  -1.2101  -0.8419  -0.7619  -0.4168
    -0.2695  -0.1504   0.0766   0.2266   0.3604   1.0300   1.6491   1.7426
     1.9877   2.2616   2.3912   2.4923   2.4973   2.6607   2.8942   3.0245
     3.1640   3.2868   3.3426   3.4523   3.7512   3.8077   3.9651   4.0842
     4.1027   4.1877   4.2374   4.2755   4.4543   4.4854   4.5480   4.6723
     4.8192   4.8220   4.8842   4.9537   4.9693   5.0207   5.0650   5.0751
     5.1137   5.1914   5.2268   5.2356   5.3195   5.5752   5.6423   5.8246
     5.8698   6.0794   6.3640   6.5086   6.7938   6.9729   7.1634   7.1758
     7.6307   7.9413   8.3259   8.7341   9.0895   9.1495   9.1829   9.6992
     9.7906   9.9426  10.2994  10.4115  10.4302  10.5722  10.6666  10.6910
    10.7734  10.8429  10.9344  11.0894  11.1496

          k =-0.0707 0.0000 0.1839 ( 45703 PWs)   bands (ev):

   -46.5670 -45.5076 -45.0767 -44.9911 -44.9016 -44.8883 -44.8512 -44.8338
   -44.8298 -44.8128 -44.8096 -44.7926 -44.7881 -44.7829 -19.5753 -19.4208
   -19.3062 -18.5630 -18.5485 -18.3839 -18.3228 -18.2930 -18.2254 -18.2147
   -18.1866 -18.1291 -18.1231 -18.0734 -18.0545 -18.0353 -18.0320 -18.0232
   -17.9895 -17.9750 -17.9451 -17.9309 -17.9264 -17.9190 -17.9024 -17.8925
   -17.8896 -17.8582 -17.8255 -17.8136 -17.7879 -17.7863 -17.7479 -17.7405
   -17.6991 -17.6601 -17.6072 -17.5981 -17.5445 -17.4863 -17.4695 -17.4351
    -4.9686  -4.7647  -4.3892  -3.9058  -3.3609  -2.8010  -2.2604  -2.0728
    -1.9311  -1.7347  -1.6447  -1.2540  -1.1989  -0.7758  -0.6981  -0.4259
    -0.3036  -0.2252  -0.1108   0.0307   0.3819   1.0354   1.3605   1.7443
     1.8131   2.3999   2.4709   2.5002   2.5087   2.5402   2.6365   2.8196
     3.0454   3.1225   3.3178   3.3456   3.5001   3.7700   4.0410   4.0903
     4.1075   4.1402   4.1612   4.2919   4.3395   4.4643   4.5893   4.7104
     4.8239   4.8471   4.8837   4.8990   4.9330   5.0290   5.0498   5.0771
     5.1383   5.1415   5.2882   5.2929   5.3300   5.6220   5.8492   5.9098
     6.0782   6.3538   6.4066   6.7735   6.8404   7.1824   7.2230   7.3616
     7.8540   8.0047   8.4916   8.7700   9.1512   9.1811   9.2332   9.4014
     9.4825   9.6177   9.7163   9.9074   9.9291  10.1030  10.1947  10.2608
    10.4362  10.4853  10.5739  10.7288  10.8005

          k =-0.1060 0.0000 0.2759 ( 45690 PWs)   bands (ev):

   -46.5670 -45.5076 -45.0767 -44.9909 -44.9010 -44.8877 -44.8504 -44.8343
   -44.8294 -44.8131 -44.8097 -44.7930 -44.7890 -44.7834 -19.5754 -19.4225
   -19.3092 -18.5681 -18.5492 -18.3935 -18.3321 -18.3009 -18.2267 -18.2209
   -18.1875 -18.1305 -18.1272 -18.0819 -18.0706 -18.0650 -18.0341 -18.0276
   -18.0209 -18.0027 -17.9692 -17.9314 -17.9276 -17.9235 -17.8985 -17.8942
   -17.8716 -17.8390 -17.8129 -17.8043 -17.7897 -17.7625 -17.7389 -17.7208
   -17.6972 -17.6652 -17.6044 -17.5942 -17.5412 -17.4828 -17.4658 -17.4315
    -4.7055  -4.5141  -4.1605  -3.7113  -3.2195  -2.7311  -2.2495  -1.9031
    -1.7690  -1.7341  -1.4970  -1.1690  -1.1287  -0.6810  -0.6430  -0.5866
    -0.4790  -0.2918  -0.1663  -0.1643   0.4080   1.0414   1.1422   1.6872
     1.7479   1.9166   2.1299   2.3820   2.4599   2.5267   2.5488   2.6112
     2.8593   3.0861   3.1678   3.3406   3.3634   3.5855   3.7252   3.9328
     4.0716   4.2010   4.2221   4.4413   4.4938   4.5297   4.6065   4.6538
     4.7239   4.8456   4.8842   4.9141   4.9781   5.0171   5.0377   5.0472
     5.1934   5.2599   5.3309   5.4257   5.5191   5.6494   5.9259   6.0119
     6.3213   6.5794   6.7578   6.8339   7.2141   7.2153   7.4068   7.7576
     7.9510   8.1774   8.5649   8.6945   8.8601   8.9920   8.9954   9.2000
     9.2060   9.2740   9.4022   9.4060   9.5866   9.8073   9.8202   9.9259
    10.0267  10.1672  10.3127  10.3739  10.4897

          k =-0.1414 0.0000 0.3679 ( 45711 PWs)   bands (ev):

   -46.5670 -45.5075 -45.0765 -44.9908 -44.9003 -44.8870 -44.8494 -44.8348
   -44.8290 -44.8134 -44.8097 -44.7934 -44.7898 -44.7841 -19.5756 -19.4243
   -19.3126 -18.5738 -18.5500 -18.4051 -18.3422 -18.3095 -18.2277 -18.2273
   -18.1877 -18.1328 -18.1317 -18.1144 -18.1085 -18.0656 -18.0550 -18.0364
   -18.0320 -18.0206 -17.9815 -17.9321 -17.9287 -17.9250 -17.8976 -17.8816
   -17.8485 -17.8195 -17.8121 -17.7933 -17.7870 -17.7468 -17.7361 -17.7056
   -17.6952 -17.6710 -17.6015 -17.5899 -17.5377 -17.4790 -17.4616 -17.4276
    -4.3685  -4.1951  -3.8740  -3.4785  -3.0685  -2.6674  -2.2250  -1.7021
    -1.6874  -1.5657  -1.3173  -1.1154  -0.9844  -0.8756  -0.7136  -0.5814
    -0.5634  -0.4504  -0.2593  -0.1122   0.4281   1.0195   1.0456   1.3114
     1.5475   1.6697   1.7536   2.0417   2.2241   2.3915   2.4964   2.5487
     2.6331   2.8625   3.1074   3.2052   3.3480   3.4152   3.5543   3.8468
     4.0831   4.2277   4.2997   4.3495   4.4698   4.4948   4.5419   4.7341
     4.7911   4.8954   4.9110   4.9456   4.9473   5.0325   5.1940   5.1978
     5.2539   5.2805   5.5507   5.6286   5.6409   5.8218   6.0495   6.2110
     6.2839   6.7251   7.0741   7.1045   7.2936   7.4819   7.5549   7.7185
     7.9902   8.1676   8.4754   8.4998   8.7049   8.7389   8.9027   8.9227
     9.0182   9.1112   9.2909   9.2941   9.5139   9.5536   9.7285   9.7543
     9.7565   9.9491  10.0993  10.2008  10.3269

          k =-0.1767 0.0000 0.4599 ( 45729 PWs)   bands (ev):

   -46.5669 -45.5074 -45.0765 -44.9906 -44.8997 -44.8863 -44.8485 -44.8353
   -44.8285 -44.8137 -44.8097 -44.7939 -44.7904 -44.7850 -19.5757 -19.4260
   -19.3158 -18.5788 -18.5508 -18.4163 -18.3511 -18.3171 -18.2338 -18.2270
   -18.1871 -18.1503 -18.1404 -18.1357 -18.1339 -18.0835 -18.0630 -18.0385
   -18.0385 -18.0329 -17.9872 -17.9327 -17.9299 -17.9247 -17.8957 -17.8666
   -17.8261 -17.8115 -17.8015 -17.7962 -17.7735 -17.7390 -17.7328 -17.7016
   -17.6935 -17.6764 -17.5989 -17.5860 -17.5346 -17.4757 -17.4579 -17.4241
    -3.9918  -3.8436  -3.5720  -3.2629  -2.9653  -2.6291  -2.1881  -1.6465
    -1.4521  -1.3499  -1.1382  -1.1105  -1.0436  -0.9206  -0.8562  -0.6107
    -0.5268  -0.5071  -0.3088  -0.0801   0.4367   0.7789   1.0022   1.0470
     1.0973   1.5719   1.6613   1.7600   1.9188   2.2062   2.2682   2.3793
     2.5704   2.6824   2.8097   2.9909   3.3596   3.4630   3.5687   3.8816
     4.0811   4.1568   4.2387   4.2582   4.4244   4.4955   4.5539   4.5954
     4.8307   4.8591   4.9232   5.0682   5.0817   5.2699   5.2726   5.3147
     5.3614   5.4387   5.6354   5.6967   5.8643   6.0752   6.1475   6.3303
     6.5502   6.5892   6.8979   7.1249   7.4098   7.5327   7.5998   7.8469
     8.0620   8.0757   8.2478   8.4389   8.6464   8.6766   8.8258   9.0159
     9.0212   9.1577   9.3230   9.3261   9.4026   9.4964   9.6689   9.7340
     9.8147   9.8851   9.9214  10.0197  10.2052

          k =-0.2121 0.0000 0.5518 ( 45770 PWs)   bands (ev):

   -46.5669 -45.5074 -45.0764 -44.9905 -44.8993 -44.8859 -44.8479 -44.8356
   -44.8283 -44.8139 -44.8097 -44.7943 -44.7905 -44.7858 -19.5757 -19.4271
   -19.3181 -18.5823 -18.5514 -18.4245 -18.3572 -18.3223 -18.2380 -18.2264
   -18.1864 -18.1742 -18.1602 -18.1385 -18.1372 -18.1002 -18.0631 -18.0457
   -18.0400 -18.0381 -17.9899 -17.9332 -17.9304 -17.9238 -17.8934 -17.8563
   -17.8111 -17.8101 -17.8006 -17.7851 -17.7622 -17.7343 -17.7310 -17.7066
   -17.6923 -17.6801 -17.5971 -17.5834 -17.5325 -17.4734 -17.4553 -17.4217
    -3.6256  -3.5176  -3.3333  -3.1641  -2.9517  -2.6137  -2.1520  -1.5919
    -1.2623  -1.2419  -1.1682  -1.0604  -1.0088  -0.9794  -0.7834  -0.7198
    -0.5006  -0.4760  -0.3579  -0.0717   0.4066   0.4366   0.7437   1.0468
     1.1038   1.2891   1.5996   1.6699   1.7653   1.9334   2.0277   2.3417
     2.4777   2.5418   2.5866   2.9052   3.3066   3.4963   3.6865   3.8958
     3.9554   4.0826   4.2056   4.2517   4.3874   4.5086   4.5333   4.6480
     4.7852   4.8380   4.9350   5.1115   5.1890   5.3563   5.3655   5.4760
     5.5526   5.6106   5.6529   5.8661   5.9677   6.0086   6.2904   6.3403
     6.4901   6.7163   6.7407   7.0262   7.2357   7.3630   7.8001   7.8338
     8.0200   8.4476   8.4481   8.5214   8.6084   8.7260   8.9032   8.9251
     9.0878   9.0916   9.2870   9.4811   9.4996   9.5447   9.6385   9.7426
     9.8161   9.8660   9.9003   9.9865  10.1105

          k = 0.2474 0.0000-0.6438 ( 45786 PWs)   bands (ev):

   -46.5669 -45.5074 -45.0764 -44.9905 -44.8991 -44.8857 -44.8477 -44.8357
   -44.8282 -44.8140 -44.8096 -44.7944 -44.7905 -44.7861 -19.5757 -19.4276
   -19.3189 -18.5836 -18.5516 -18.4275 -18.3594 -18.3242 -18.2394 -18.2261
   -18.1863 -18.1823 -18.1673 -18.1394 -18.1382 -18.1062 -18.0633 -18.0479
   -18.0405 -18.0403 -17.9906 -17.9334 -17.9304 -17.9231 -17.8930 -17.8523
   -17.8110 -17.8046 -17.8018 -17.7791 -17.7575 -17.7314 -17.7294 -17.7125
   -17.6919 -17.6814 -17.5965 -17.5824 -17.5318 -17.4726 -17.4544 -17.4209
    -3.3790  -3.3333  -3.3113  -3.2034  -2.9666  -2.6097  -2.1367  -1.5689
    -1.3150  -1.1436  -1.1085  -1.0912  -0.9691  -0.9528  -0.7681  -0.7581
    -0.4873  -0.4721  -0.3843  -0.0721   0.2691   0.4353   0.6196   1.0464
     1.1702   1.2560   1.3735   1.7160   1.7673   1.8346   1.8956   2.3569
     2.3895   2.4224   2.5926   2.8761   3.2866   3.5083   3.7298   3.8266
     4.0262   4.0313   4.1444   4.2822   4.3376   4.5293   4.5511   4.6704
     4.7551   4.8393   4.9379   5.1317   5.2291   5.3874   5.4139   5.5344
     5.6003   5.6573   5.7389   5.8908   6.0176   6.0602   6.1799   6.4075
     6.5159   6.5486   6.6413   7.0798   7.1038   7.5554   7.6971   7.9216
     8.0295   8.3614   8.4359   8.5840   8.8683   8.9094   8.9784   9.0262
     9.1735   9.1967   9.2441   9.3835   9.4174   9.4177   9.6285   9.6495
     9.7216   9.7651   9.9651   9.9909  10.0941

          k = 0.0206 0.0833-0.0536 ( 45693 PWs)   bands (ev):

   -46.5670 -45.5076 -45.0768 -44.9911 -44.9016 -44.8883 -44.8511 -44.8339
   -44.8298 -44.8128 -44.8097 -44.7927 -44.7879 -44.7835 -19.5761 -19.4183
   -19.3041 -18.5681 -18.5364 -18.3774 -18.3039 -18.2805 -18.2396 -18.2078
   -18.1952 -18.1558 -18.1090 -18.0921 -18.0482 -18.0396 -18.0181 -17.9740
   -17.9548 -17.9474 -17.9396 -17.9231 -17.9037 -17.9009 -17.8882 -17.8821
   -17.8785 -17.8615 -17.8536 -17.8328 -17.8092 -17.8030 -17.7827 -17.7416
   -17.6944 -17.6532 -17.6130 -17.6081 -17.5458 -17.5073 -17.4668 -17.4510
    -5.1380  -4.9261  -4.5370  -4.0325  -3.4543  -2.8439  -2.2509  -2.2466
    -2.1142  -1.8475  -1.7013  -1.4956  -1.2350  -1.0907  -0.5274  -0.3178
    -0.2408  -0.0012   0.2270   0.2719   0.3760   0.8978   1.5823   1.8715
     2.1416   2.2192   2.3229   2.3949   2.6132   2.7221   3.0263   3.0629
     3.1158   3.3624   3.4311   3.6164   3.6831   3.8545   3.9538   3.9952
     4.0715   4.2005   4.2550   4.3602   4.4222   4.4641   4.5528   4.6658
     4.7143   4.8059   4.8572   4.9043   4.9985   5.0284   5.0625   5.0678
     5.1073   5.1392   5.1905   5.2663   5.2985   5.5524   5.5740   5.7862
     5.8229   6.0047   6.2679   6.4145   6.7290   6.8093   7.0454   7.1315
     7.3690   8.2119   8.4954   8.7957   9.0250   9.1588   9.2643   9.6998
     9.7920  10.0017  10.3146  10.5214  10.6354  10.7082  10.7846  10.8663
    10.9098  11.0351  11.1030  11.1921  11.3169

          k =-0.0147 0.0833 0.0383 ( 45703 PWs)   bands (ev):

   -46.5670 -45.5076 -45.0768 -44.9911 -44.9016 -44.8883 -44.8512 -44.8338
   -44.8298 -44.8127 -44.8097 -44.7927 -44.7879 -44.7835 -19.5761 -19.4182
   -19.3040 -18.5680 -18.5363 -18.3771 -18.3035 -18.2802 -18.2395 -18.2077
   -18.1949 -18.1559 -18.1088 -18.0922 -18.0479 -18.0394 -18.0177 -17.9738
   -17.9526 -17.9474 -17.9385 -17.9219 -17.9035 -17.9008 -17.8871 -17.8820
   -17.8758 -17.8609 -17.8498 -17.8378 -17.8116 -17.8080 -17.7826 -17.7415
   -17.6944 -17.6530 -17.6131 -17.6082 -17.5460 -17.5075 -17.4669 -17.4511
    -5.1475  -4.9351  -4.5453  -4.0397  -3.4599  -2.8469  -2.2556  -2.2469
    -2.1191  -1.8516  -1.6983  -1.4982  -1.2352  -1.1008  -0.5262  -0.3225
    -0.2414   0.0058   0.2384   0.2722   0.3899   0.8967   1.5814   1.9192
     2.1398   2.2066   2.3171   2.3735   2.6245   2.7108   3.0385   3.0691
     3.1138   3.3581   3.4570   3.6542   3.6716   3.8590   3.9579   3.9835
     4.0800   4.2143   4.2579   4.3687   4.4147   4.4759   4.5572   4.6620
     4.7175   4.8050   4.8586   4.9092   5.0051   5.0245   5.0555   5.0686
     5.0974   5.1429   5.1841   5.2724   5.2962   5.5332   5.5643   5.7837
     5.8133   5.9878   6.2637   6.3942   6.7245   6.7957   7.0386   7.1229
     7.3611   8.2068   8.4907   8.7927   9.0249   9.1553   9.2625   9.7113
     9.7959  10.0109  10.3253  10.5403  10.6856  10.7490  10.8170  10.9243
    11.0513  11.0684  11.1981  11.2362  11.3647

          k =-0.0501 0.0833 0.1303 ( 45732 PWs)   bands (ev):

   -46.5670 -45.5076 -45.0767 -44.9910 -44.9013 -44.8880 -44.8508 -44.8341
   -44.8296 -44.8129 -44.8097 -44.7928 -44.7884 -44.7835 -19.5761 -19.4189
   -19.3052 -18.5694 -18.5374 -18.3807 -18.3076 -18.2837 -18.2412 -18.2088
   -18.1979 -18.1554 -18.1102 -18.0907 -18.0514 -18.0419 -18.0234 -17.9765
   -17.9727 -17.9551 -17.9461 -17.9293 -17.9153 -17.9005 -17.8975 -17.8920
   -17.8823 -17.8688 -17.8391 -17.8085 -17.8049 -17.7831 -17.7687 -17.7420
   -17.6935 -17.6550 -17.6119 -17.6067 -17.5445 -17.5058 -17.4653 -17.4494
    -5.0446  -4.8369  -4.4551  -3.9614  -3.3998  -2.8146  -2.2495  -2.1981
    -2.0665  -1.8078  -1.7234  -1.4706  -1.2220  -1.0112  -0.5327  -0.2829
    -0.2348  -0.0728   0.1181   0.2475   0.2845   0.9082   1.5821   1.6501
     2.0122   2.3058   2.4187   2.4914   2.5803   2.7570   2.8228   3.0391
     3.0986   3.2176   3.3714   3.4115   3.6778   3.8520   3.9237   4.0179
     4.1140   4.1429   4.1984   4.2385   4.3851   4.4829   4.5412   4.6336
     4.7008   4.7991   4.8691   4.8981   4.9729   5.0354   5.0703   5.0855
     5.1207   5.1540   5.2079   5.2497   5.3300   5.5969   5.7888   5.8167
     5.8918   6.1850   6.2991   6.5999   6.7495   6.9556   7.1139   7.2148
     7.4501   8.2525   8.5294   8.8136   9.0275   9.1952   9.2790   9.5587
     9.7574   9.9038  10.0799  10.1177  10.2223  10.3499  10.4375  10.5246
    10.6093  10.6892  10.7843  10.8517  10.9675

          k =-0.0854 0.0833 0.2223 ( 45694 PWs)   bands (ev):

   -46.5670 -45.5076 -45.0766 -44.9909 -44.9008 -44.8875 -44.8501 -44.8345
   -44.8293 -44.8132 -44.8097 -44.7932 -44.7892 -44.7838 -19.5762 -19.4203
   -19.3076 -18.5723 -18.5393 -18.3880 -18.3153 -18.2902 -18.2440 -18.2115
   -18.2018 -18.1553 -18.1130 -18.0884 -18.0632 -18.0484 -18.0438 -18.0000
   -17.9883 -17.9770 -17.9561 -17.9433 -17.9234 -17.9049 -17.9011 -17.8860
   -17.8838 -17.8513 -17.8171 -17.8071 -17.7843 -17.7763 -17.7421 -17.7357
   -17.6918 -17.6590 -17.6093 -17.6039 -17.5418 -17.5027 -17.4623 -17.4463
    -4.8374  -4.6394  -4.2742  -3.8061  -3.2840  -2.7557  -2.2487  -2.0869
    -1.9649  -1.7558  -1.7113  -1.4185  -1.1778  -0.8963  -0.5209  -0.2712
    -0.2475  -0.2034  -0.0589   0.0680   0.2975   0.9232   1.4065   1.6109
     1.8891   2.2110   2.3501   2.4846   2.5405   2.5980   2.6364   2.7724
     2.9968   3.1503   3.2204   3.3538   3.4652   3.7040   3.9306   4.0350
     4.0849   4.1121   4.1865   4.2401   4.3669   4.4854   4.5444   4.6016
     4.7378   4.7675   4.8328   4.9258   4.9646   5.0012   5.0335   5.1037
     5.1509   5.1974   5.2586   5.3371   5.4435   5.6567   5.8760   5.9238
     6.2584   6.3279   6.5420   6.7475   6.9498   7.1637   7.2780   7.4348
     7.6421   8.2321   8.5349   8.7861   9.0545   9.1522   9.2817   9.3334
     9.3675   9.5055   9.5617   9.6898   9.9029   9.9558  10.0234  10.0939
    10.1569  10.3467  10.4758  10.5252  10.6105

          k =-0.1208 0.0833 0.3142 ( 45692 PWs)   bands (ev):

   -46.5670 -45.5075 -45.0765 -44.9907 -44.9002 -44.8868 -44.8492 -44.8350
   -44.8288 -44.8135 -44.8097 -44.7936 -44.7901 -44.7843 -19.5764 -19.4220
   -19.3107 -18.5761 -18.5415 -18.3982 -18.3249 -18.2983 -18.2471 -18.2156
   -18.2047 -18.1566 -18.1172 -18.0920 -18.0848 -18.0819 -18.0496 -18.0338
   -18.0098 -17.9806 -17.9749 -17.9421 -17.9281 -17.9030 -17.8944 -17.8866
   -17.8644 -17.8325 -17.8061 -17.7977 -17.7866 -17.7559 -17.7411 -17.7140
   -17.6897 -17.6643 -17.6058 -17.6006 -17.5383 -17.4988 -17.4584 -17.4424
    -4.5428  -4.3596  -4.0204  -3.5941  -3.1365  -2.6889  -2.2354  -1.9423
    -1.8373  -1.7374  -1.6133  -1.3545  -1.1212  -0.8017  -0.4856  -0.4643
    -0.3335  -0.2242  -0.1558  -0.0374   0.3171   0.9298   1.2650   1.6086
     1.6873   1.8190   1.9387   2.3006   2.3975   2.4521   2.5449   2.6054
     2.8555   2.9923   3.1788   3.2721   3.3655   3.4995   3.7081   3.8968
     4.0537   4.1556   4.2111   4.4255   4.4391   4.4713   4.5168   4.5926
     4.7100   4.8038   4.8440   4.9398   4.9684   5.0394   5.0478   5.1148
     5.2149   5.2911   5.3840   5.5134   5.6723   5.7123   5.9756   6.0605
     6.3297   6.7004   6.7439   6.9362   7.1496   7.2871   7.4500   7.7541
     7.8658   8.1287   8.3644   8.6453   8.7975   8.9235   9.0126   9.0948
     9.2383   9.2507   9.4153   9.4966   9.5394   9.6428   9.7279   9.8756
     9.9307  10.0325  10.1992  10.2769  10.4529

          k =-0.1561 0.0833 0.4062 ( 45704 PWs)   bands (ev):

   -46.5670 -45.5074 -45.0764 -44.9906 -44.8995 -44.8861 -44.8482 -44.8355
   -44.8284 -44.8139 -44.8097 -44.7941 -44.7908 -44.7851 -19.5765 -19.4237
   -19.3140 -18.5802 -18.5436 -18.4096 -18.3345 -18.3065 -18.2499 -18.2192
   -18.2062 -18.1593 -18.1293 -18.1231 -18.1145 -18.0821 -18.0661 -18.0520
   -18.0260 -17.9840 -17.9831 -17.9412 -17.9272 -17.9061 -17.8899 -17.8758
   -17.8407 -17.8136 -17.8048 -17.7898 -17.7827 -17.7447 -17.7385 -17.7041
   -17.6878 -17.6699 -17.6018 -17.5975 -17.5347 -17.4949 -17.4545 -17.4385
    -4.1880  -4.0254  -3.7248  -3.3637  -3.0013  -2.6365  -2.2042  -1.8099
    -1.7230  -1.6875  -1.5197  -1.2838  -1.0715  -0.7469  -0.6165  -0.4804
    -0.4041  -0.2814  -0.1579  -0.0539   0.3309   0.9266   1.1117   1.2113
     1.3980   1.6153   1.8023   1.8894   2.1379   2.3823   2.4386   2.4746
     2.5338   2.8433   3.0141   3.1743   3.3628   3.4128   3.5946   3.8812
     4.0948   4.1924   4.2180   4.2774   4.3497   4.4444   4.5501   4.6074
     4.7379   4.8162   4.8804   4.9847   5.0753   5.1300   5.1583   5.2057
     5.3387   5.3836   5.5314   5.6833   5.7646   6.0007   6.0867   6.2554
     6.3826   6.6706   6.9178   7.0211   7.1797   7.4195   7.5567   7.7665
     8.1063   8.2356   8.3775   8.4564   8.5409   8.7237   8.7708   8.8630
     9.0703   9.1984   9.3190   9.3842   9.4850   9.5655   9.7350   9.7760
     9.8564   9.9293  10.0230  10.1643  10.3037

          k =-0.1915 0.0833 0.4982 ( 45760 PWs)   bands (ev):

   -46.5669 -45.5074 -45.0764 -44.9905 -44.8989 -44.8856 -44.8474 -44.8359
   -44.8280 -44.8141 -44.8096 -44.7946 -44.7911 -44.7860 -19.5765 -19.4251
   -19.3168 -18.5836 -18.5451 -18.4196 -18.3423 -18.3130 -18.2522 -18.2211
   -18.2068 -18.1626 -18.1588 -18.1475 -18.1220 -18.0891 -18.0804 -18.0549
   -18.0380 -17.9887 -17.9848 -17.9409 -17.9237 -17.9094 -17.8883 -17.8623
   -17.8200 -17.8047 -17.7960 -17.7921 -17.7706 -17.7397 -17.7359 -17.7048
   -17.6863 -17.6746 -17.5983 -17.5954 -17.5318 -17.4918 -17.4512 -17.4353
    -3.8132  -3.6807  -3.4414  -3.1867  -2.9367  -2.6081  -2.1617  -1.7603
    -1.6533  -1.6218  -1.4427  -1.1936  -1.0296  -0.7406  -0.6677  -0.5352
    -0.3446  -0.3132  -0.1489  -0.0611   0.3342   0.6478   0.9217   0.9684
     1.2237   1.4897   1.6105   1.7917   1.8452   2.0980   2.2310   2.3775
     2.5173   2.6563   2.7671   3.0605   3.3257   3.4609   3.6498   3.9289
     3.9870   4.1418   4.1967   4.2573   4.3231   4.4399   4.4964   4.6565
     4.7226   4.8147   4.9042   5.0145   5.1690   5.2390   5.2934   5.3925
     5.4857   5.5359   5.6683   5.7381   5.8960   6.0418   6.2564   6.3083
     6.4138   6.7044   6.7334   6.9503   7.2080   7.4005   7.6228   7.8255
     8.1152   8.2666   8.4088   8.5495   8.6568   8.7273   8.7891   8.9610
     9.0486   9.1721   9.2253   9.3331   9.4696   9.5296   9.7019   9.7523
     9.8402   9.8911   9.9769  10.1077  10.2014

          k = 0.2681 0.0833-0.6974 ( 45781 PWs)   bands (ev):

   -46.5669 -45.5074 -45.0763 -44.9904 -44.8986 -44.8852 -44.8470 -44.8361
   -44.8278 -44.8143 -44.8096 -44.7949 -44.7911 -44.7866 -19.5766 -19.4260
   -19.3184 -18.5857 -18.5460 -18.4256 -18.3467 -18.3167 -18.2536 -18.2217
   -18.2068 -18.1766 -18.1650 -18.1623 -18.1246 -18.1010 -18.0805 -18.0564
   -18.0447 -17.9920 -17.9847 -17.9396 -17.9217 -17.9116 -17.8876 -17.8541
   -17.8080 -17.8046 -17.7951 -17.7831 -17.7612 -17.7365 -17.7338 -17.7125
   -17.6855 -17.6773 -17.5958 -17.5947 -17.5302 -17.4901 -17.4493 -17.4336
    -3.4784  -3.3984  -3.2767  -3.1649  -2.9456  -2.5961  -2.1284  -1.7712
    -1.6354  -1.5684  -1.3940  -1.1104  -0.9848  -0.7820  -0.6541  -0.5508
    -0.3306  -0.2584  -0.1745  -0.0652   0.3313   0.3688   0.7104   0.9208
     1.2554   1.3128   1.5709   1.6026   1.8089   1.8777   2.0594   2.3904
     2.4863   2.5412   2.5991   3.0069   3.2926   3.4767   3.7361   3.8576
     4.0026   4.0500   4.1940   4.2706   4.3120   4.3906   4.5519   4.6780
     4.7109   4.8097   4.9135   5.0362   5.2841   5.3106   5.4091   5.4483
     5.5942   5.6481   5.7591   5.8515   5.8932   6.0127   6.1548   6.3836
     6.4107   6.5779   6.6747   6.9729   7.0718   7.4977   7.6274   7.9124
     8.0449   8.2827   8.5076   8.6129   8.8557   8.9201   8.9471   9.0284
     9.1515   9.1996   9.2974   9.4086   9.4833   9.5900   9.6563   9.7193
     9.7473   9.7822   9.8405   9.9594  10.1076

          k = 0.2327 0.0833-0.6055 ( 45781 PWs)   bands (ev):

   -46.5669 -45.5074 -45.0763 -44.9904 -44.8986 -44.8852 -44.8469 -44.8361
   -44.8278 -44.8143 -44.8096 -44.7950 -44.7911 -44.7867 -19.5766 -19.4260
   -19.3186 -18.5858 -18.5461 -18.4261 -18.3470 -18.3170 -18.2537 -18.2218
   -18.2068 -18.1780 -18.1654 -18.1634 -18.1248 -18.1020 -18.0805 -18.0565
   -18.0452 -17.9922 -17.9847 -17.9394 -17.9215 -17.9118 -17.8876 -17.8533
   -17.8070 -17.8046 -17.7952 -17.7820 -17.7604 -17.7362 -17.7332 -17.7138
   -17.6854 -17.6775 -17.5956 -17.5947 -17.5300 -17.4899 -17.4491 -17.4334
    -3.4337  -3.3665  -3.2747  -3.1746  -2.9482  -2.5952  -2.1255  -1.7732
    -1.6350  -1.5637  -1.3901  -1.1028  -0.9779  -0.7894  -0.6514  -0.5511
    -0.3309  -0.2469  -0.1822  -0.0654   0.3291   0.3479   0.6893   0.9207
     1.2360   1.3337   1.5358   1.6025   1.8056   1.8659   2.0418   2.3935
     2.4846   2.5288   2.5855   3.0031   3.2896   3.4781   3.7425   3.8480
     4.0126   4.0443   4.1825   4.2759   4.3092   4.3894   4.5575   4.6770
     4.7122   4.8090   4.9139   5.0381   5.2934   5.3275   5.4200   5.4546
     5.5922   5.6430   5.7768   5.8475   5.8984   6.0304   6.1397   6.3979
     6.4164   6.5657   6.6312   6.9820   7.0543   7.5308   7.6238   7.9249
     8.0472   8.2778   8.4926   8.6081   8.8682   8.9123   9.0267   9.0607
     9.1597   9.2174   9.2984   9.4288   9.4717   9.5560   9.6668   9.7206
     9.7528   9.7722   9.8253   9.9551  10.0736

          k = 0.1974 0.0833-0.5135 ( 45769 PWs)   bands (ev):

   -46.5669 -45.5074 -45.0764 -44.9904 -44.8989 -44.8855 -44.8473 -44.8359
   -44.8280 -44.8142 -44.8096 -44.7947 -44.7911 -44.7861 -19.5765 -19.4253
   -19.3171 -18.5841 -18.5453 -18.4209 -18.3433 -18.3138 -18.2525 -18.2213
   -18.2068 -18.1636 -18.1623 -18.1508 -18.1226 -18.0917 -18.0805 -18.0553
   -18.0395 -17.9894 -17.9848 -17.9408 -17.9233 -17.9099 -17.8881 -17.8605
   -17.8173 -17.8046 -17.7947 -17.7913 -17.7687 -17.7390 -17.7357 -17.7058
   -17.6861 -17.6752 -17.5978 -17.5952 -17.5315 -17.4914 -17.4508 -17.4350
    -3.7525  -3.6266  -3.4015  -3.1701  -2.9349  -2.6052  -2.1548  -1.7603
    -1.6474  -1.6108  -1.4320  -1.1773  -1.0226  -0.7451  -0.6676  -0.5403
    -0.3362  -0.3112  -0.1503  -0.0622   0.3340   0.5859   0.9065   0.9263
     1.2329   1.4383   1.6085   1.7767   1.8125   2.0482   2.1972   2.3780
     2.5128   2.6293   2.7319   3.0476   3.3190   3.4642   3.6681   3.9388
     3.9588   4.1236   4.2077   4.2533   4.3247   4.4252   4.5062   4.6641
     4.7181   4.8139   4.9069   5.0191   5.1873   5.2522   5.3148   5.4036
     5.5270   5.5625   5.6849   5.7502   5.9112   6.0194   6.2780   6.3050
     6.3904   6.6878   6.7549   6.9496   7.1865   7.3824   7.6380   7.8361
     8.0873   8.2808   8.4625   8.5755   8.6501   8.7456   8.8220   8.9809
     9.0838   9.1536   9.2475   9.3281   9.4335   9.5570   9.6897   9.7343
     9.8264   9.8769   9.9702  10.1410  10.1600

          k = 0.1620 0.0833-0.4215 ( 45716 PWs)   bands (ev):

   -46.5669 -45.5074 -45.0764 -44.9906 -44.8994 -44.8860 -44.8481 -44.8355
   -44.8283 -44.8139 -44.8097 -44.7942 -44.7909 -44.7852 -19.5765 -19.4240
   -19.3145 -18.5808 -18.5439 -18.4114 -18.3360 -18.3077 -18.2503 -18.2196
   -18.2064 -18.1598 -18.1344 -18.1274 -18.1168 -18.0820 -18.0703 -18.0526
   -18.0283 -17.9848 -17.9836 -17.9412 -17.9267 -17.9067 -17.8897 -17.8733
   -17.8369 -17.8106 -17.8045 -17.7904 -17.7806 -17.7436 -17.7380 -17.7035
   -17.6875 -17.6708 -17.6012 -17.5971 -17.5342 -17.4943 -17.4539 -17.4379
    -4.1256  -3.9672  -3.6747  -3.3279  -2.9843  -2.6301  -2.1975  -1.7945
    -1.7077  -1.6771  -1.5058  -1.2704  -1.0643  -0.7422  -0.6322  -0.4915
    -0.3967  -0.2902  -0.1552  -0.0550   0.3322   0.9256   1.0270   1.2052
     1.3200   1.6139   1.7856   1.8300   2.0891   2.3706   2.3996   2.4221
     2.5298   2.8143   2.9702   3.1513   3.3572   3.4265   3.5904   3.8873
     4.1059   4.1638   4.2180   4.2781   4.3294   4.4488   4.5369   4.6131
     4.7383   4.8168   4.8850   4.9899   5.0903   5.1540   5.1873   5.2328
     5.3515   5.4100   5.5555   5.6962   5.7867   6.0514   6.0959   6.2659
     6.4288   6.6426   6.8781   7.0155   7.2042   7.4473   7.5565   7.7716
     8.1240   8.2636   8.3734   8.4278   8.5376   8.7155   8.7838   8.8409
     9.0425   9.1891   9.3160   9.3681   9.4669   9.5652   9.7336   9.7967
     9.8520   9.9237   9.9976  10.1632  10.2629

          k = 0.1267 0.0833-0.3296 ( 45697 PWs)   bands (ev):

   -46.5670 -45.5075 -45.0765 -44.9907 -44.9001 -44.8867 -44.8490 -44.8351
   -44.8288 -44.8136 -44.8097 -44.7937 -44.7903 -44.7844 -19.5764 -19.4223
   -19.3112 -18.5768 -18.5419 -18.4001 -18.3266 -18.2997 -18.2476 -18.2163
   -18.2050 -18.1570 -18.1182 -18.0964 -18.0910 -18.0826 -18.0504 -18.0393
   -18.0127 -17.9811 -17.9769 -17.9418 -17.9283 -17.9034 -17.8927 -17.8861
   -17.8605 -17.8293 -17.8059 -17.7949 -17.7871 -17.7534 -17.7408 -17.7115
   -17.6894 -17.6653 -17.6051 -17.6000 -17.5376 -17.4981 -17.4578 -17.4417
    -4.4869  -4.3067  -3.9729  -3.5555  -3.1116  -2.6786  -2.2315  -1.9176
    -1.8161  -1.7312  -1.5966  -1.3434  -1.1121  -0.7895  -0.4977  -0.4763
    -0.3558  -0.2307  -0.1611  -0.0433   0.3201   0.9297   1.2496   1.5785
     1.6207   1.7886   1.8746   2.2438   2.3604   2.4309   2.5345   2.5849
     2.8137   2.9555   3.1695   3.2747   3.3563   3.4572   3.6858   3.8831
     4.0562   4.1613   4.2223   4.3997   4.4298   4.4711   4.5290   4.5999
     4.7144   4.8064   4.8512   4.9462   4.9801   5.0445   5.0563   5.1316
     5.2334   5.3033   5.4081   5.5479   5.6995   5.7417   5.9958   6.0934
     6.3285   6.7240   6.7884   6.9899   7.1326   7.3157   7.4754   7.7565
     7.9202   8.1584   8.3165   8.6074   8.7620   8.8835   8.9563   9.0398
     9.1918   9.2556   9.4067   9.4693   9.5264   9.6188   9.7030   9.8470
     9.9047  10.0018  10.1690  10.2503  10.4197

          k = 0.0913 0.0833-0.2376 ( 45697 PWs)   bands (ev):

   -46.5670 -45.5076 -45.0766 -44.9909 -44.9007 -44.8874 -44.8499 -44.8346
   -44.8292 -44.8132 -44.8097 -44.7932 -44.7894 -44.7838 -19.5763 -19.4205
   -19.3081 -18.5728 -18.5397 -18.3895 -18.3168 -18.2915 -18.2445 -18.2121
   -18.2024 -18.1554 -18.1136 -18.0880 -18.0663 -18.0530 -18.0456 -18.0049
   -17.9929 -17.9777 -17.9600 -17.9433 -17.9245 -17.9040 -17.9012 -17.8857
   -17.8816 -17.8482 -17.8138 -17.8068 -17.7845 -17.7723 -17.7420 -17.7312
   -17.6915 -17.6598 -17.6088 -17.6033 -17.5412 -17.5020 -17.4617 -17.4457
    -4.7937  -4.5979  -4.2363  -3.7740  -3.2608  -2.7445  -2.2476  -2.0643
    -1.9446  -1.7541  -1.6968  -1.4083  -1.1686  -0.8784  -0.5163  -0.2970
    -0.2541  -0.2083  -0.0841   0.0422   0.3008   0.9251   1.3769   1.6116
     1.8738   2.1528   2.2849   2.4728   2.5312   2.5504   2.6370   2.7450
     2.9546   3.1576   3.2168   3.3154   3.4430   3.6791   3.8797   4.0222
     4.0659   4.1219   4.2109   4.2538   4.3997   4.4816   4.5398   4.5961
     4.7286   4.7763   4.8303   4.9269   4.9632   5.0042   5.0353   5.0899
     5.1602   5.2137   5.2782   5.3595   5.4744   5.6663   5.8894   5.9409
     6.3198   6.3447   6.6036   6.7531   7.0042   7.1847   7.3079   7.4922
     7.6820   8.2058   8.5267   8.7704   9.0547   9.0988   9.2303   9.3059
     9.3638   9.4314   9.4915   9.6428   9.8541   9.8947   9.9515  10.0322
    10.1130  10.2868  10.4204  10.4777  10.5693

          k = 0.0560 0.0833-0.1456 ( 45715 PWs)   bands (ev):

   -46.5670 -45.5076 -45.0767 -44.9910 -44.9013 -44.8879 -44.8507 -44.8341
   -44.8296 -44.8129 -44.8097 -44.7929 -44.7885 -44.7835 -19.5762 -19.4191
   -19.3056 -18.5698 -18.5376 -18.3817 -18.3087 -18.2846 -18.2416 -18.2091
   -18.1985 -18.1553 -18.1106 -18.0904 -18.0526 -18.0426 -18.0257 -17.9793
   -17.9748 -17.9598 -17.9463 -17.9317 -17.9182 -17.9005 -17.8977 -17.8949
   -17.8827 -17.8661 -17.8354 -17.8082 -17.7998 -17.7832 -17.7625 -17.7420
   -17.6933 -17.6556 -17.6116 -17.6063 -17.5441 -17.5054 -17.4649 -17.4490
    -5.0169  -4.8106  -4.4309  -3.9405  -3.3840  -2.8062  -2.2498  -2.1830
    -2.0525  -1.7968  -1.7275  -1.4633  -1.2166  -0.9921  -0.5325  -0.2759
    -0.2328  -0.0947   0.0893   0.2189   0.2845   0.9108   1.5693   1.6225
     1.9878   2.3008   2.4519   2.4976   2.5830   2.7518   2.7607   3.0004
     3.0951   3.1937   3.3302   3.4120   3.6345   3.8760   3.9171   4.0241
     4.1000   4.1502   4.1921   4.2252   4.3524   4.4852   4.5530   4.6200
     4.7099   4.7929   4.8635   4.9008   4.9695   5.0292   5.0720   5.0841
     5.1301   5.1687   5.1936   5.2607   5.3415   5.6062   5.8220   5.8338
     5.9256   6.2362   6.3070   6.6468   6.7561   6.9954   7.1350   7.2398
     7.4749   8.2600   8.5352   8.8148   9.0299   9.2049   9.2818   9.5151
     9.7398   9.8651   9.9812   9.9936  10.1643  10.2831  10.3591  10.4520
    10.5419  10.6331  10.7456  10.7739  10.9057

          k = 0.0412 0.1667-0.1073 ( 45708 PWs)   bands (ev):

   -46.5670 -45.5075 -45.0765 -44.9907 -44.8997 -44.8864 -44.8485 -44.8354
   -44.8286 -44.8138 -44.8097 -44.7940 -44.7903 -44.7854 -19.5784 -19.4156
   -19.3057 -18.5799 -18.5217 -18.3823 -18.2896 -18.2689 -18.2529 -18.2288
   -18.2013 -18.1870 -18.1339 -18.1054 -18.0497 -18.0298 -18.0217 -17.9748
   -17.9672 -17.9508 -17.9287 -17.9159 -17.9094 -17.8976 -17.8856 -17.8728
   -17.8560 -17.8521 -17.8440 -17.8155 -17.8125 -17.7784 -17.7610 -17.7329
   -17.6883 -17.6492 -17.6259 -17.6131 -17.5557 -17.5340 -17.4816 -17.4672
    -4.9787  -4.7733  -4.3950  -3.9054  -3.3468  -2.7631  -2.3503  -2.2476
    -2.2008  -2.0242  -1.7742  -1.7045  -1.3964  -1.2071  -0.3068  -0.2368
     0.0641   0.0890   0.2791   0.4431   0.5623   0.6489   1.2885   1.9309
     2.0027   2.2901   2.4793   2.6122   2.7007   2.8053   2.9455   3.1444
     3.2642   3.3123   3.4571   3.5904   3.6193   3.7404   3.8921   3.9204
     4.0057   4.1587   4.2102   4.2425   4.2990   4.3965   4.4700   4.5317
     4.5935   4.6689   4.7683   4.8179   4.8820   4.9479   5.0766   5.0920
     5.1252   5.1910   5.2624   5.2837   5.3293   5.5436   5.7331   5.7875
     5.8408   6.0934   6.1271   6.3990   6.5284   6.7989   7.0227   7.0481
     7.2969   8.5104   8.7085   8.9093   9.0961   9.2511   9.3883   9.5334
     9.7443   9.9019  10.0754  10.2266  10.3092  10.4470  10.5355  10.5800
    10.6379  10.7100  10.7615  10.9270  11.0377

          k = 0.0059 0.1667-0.0153 ( 45695 PWs)   bands (ev):

   -46.5670 -45.5075 -45.0766 -44.9907 -44.8999 -44.8866 -44.8488 -44.8353
   -44.8287 -44.8137 -44.8097 -44.7939 -44.7899 -44.7855 -19.5783 -19.4151
   -19.3049 -18.5791 -18.5208 -18.3801 -18.2877 -18.2664 -18.2505 -18.2284
   -18.1952 -18.1907 -18.1348 -18.1048 -18.0476 -18.0288 -18.0201 -17.9739
   -17.9574 -17.9441 -17.9165 -17.9138 -17.9081 -17.8842 -17.8717 -17.8614
   -17.8535 -17.8513 -17.8454 -17.8364 -17.8217 -17.8149 -17.7607 -17.7322
   -17.6892 -17.6487 -17.6257 -17.6143 -17.5567 -17.5353 -17.4828 -17.4685
    -5.0522  -4.8434  -4.4592  -3.9606  -3.3883  -2.7830  -2.3747  -2.2674
    -2.1911  -2.0405  -1.7505  -1.6921  -1.4156  -1.2882  -0.2901  -0.2294
     0.0391   0.0755   0.3156   0.5230   0.6185   0.6611   1.2666   1.9888
     2.1736   2.2593   2.4255   2.5198   2.7029   2.8664   2.9310   3.1499
     3.3276   3.4149   3.4902   3.6322   3.6896   3.8036   3.8847   3.9581
     4.0772   4.2255   4.2357   4.2628   4.3457   4.4488   4.5248   4.5627
     4.5855   4.7523   4.7680   4.8272   4.9330   4.9824   5.0392   5.0643
     5.1052   5.1395   5.2130   5.2344   5.3167   5.4919   5.5669   5.7330
     5.7810   5.9736   6.0541   6.3143   6.3917   6.6745   6.9513   6.9924
     7.2675   8.5216   8.7917   8.9459   9.0805   9.2264   9.4290   9.6351
     9.7504  10.0357  10.2126  10.4568  10.5883  10.7163  10.8617  10.8858
    10.9387  11.0412  11.0959  11.2190  11.2999

          k =-0.0295 0.1667 0.0766 ( 45717 PWs)   bands (ev):

   -46.5670 -45.5075 -45.0766 -44.9907 -44.8998 -44.8865 -44.8487 -44.8353
   -44.8286 -44.8137 -44.8097 -44.7940 -44.7901 -44.7854 -19.5784 -19.4153
   -19.3053 -18.5795 -18.5213 -18.3812 -18.2886 -18.2677 -18.2518 -18.2285
   -18.1990 -18.1881 -18.1343 -18.1051 -18.0486 -18.0292 -18.0207 -17.9740
   -17.9623 -17.9472 -17.9251 -17.9148 -17.9063 -17.8915 -17.8786 -17.8696
   -17.8563 -17.8524 -17.8488 -17.8239 -17.8154 -17.7919 -17.7609 -17.7326
   -17.6887 -17.6489 -17.6258 -17.6137 -17.5562 -17.5346 -17.4822 -17.4678
    -5.0153  -4.8082  -4.4270  -3.9328  -3.3673  -2.7729  -2.3623  -2.2571
    -2.1965  -2.0322  -1.7618  -1.7021  -1.4051  -1.2445  -0.2992  -0.2336
     0.0525   0.0827   0.2977   0.4813   0.6061   0.6366   1.2778   1.9787
     2.0285   2.3328   2.4151   2.5888   2.7023   2.8334   2.9431   3.1528
     3.3089   3.3812   3.5013   3.5548   3.6375   3.8074   3.8569   3.9352
     4.0405   4.1722   4.2288   4.2720   4.3178   4.4278   4.4805   4.5436
     4.5930   4.7063   4.7617   4.8356   4.8987   4.9396   5.0746   5.0870
     5.1166   5.1792   5.2331   5.2758   5.3027   5.5173   5.6685   5.7557
     5.8064   6.0395   6.0868   6.3579   6.4657   6.7384   6.9909   7.0140
     7.2822   8.5187   8.7500   8.9322   9.0887   9.2389   9.4088   9.5797
     9.7503   9.9660  10.1413  10.3552  10.4744  10.5538  10.6195  10.7042
[...]
     5.2570   5.3350   5.5028   5.5928   5.7273   5.9344   6.0069   6.0909
     6.3483   6.4006   6.4796   6.7597   6.9315   6.9970   7.2044   7.6015
     7.8672   8.0250   8.1431   8.3388   8.5180   8.5682   8.8165   8.8415
     8.9752   9.1076   9.2659   9.4130   9.6868   9.7710   9.9557  10.0686
    10.2139  10.3854  10.4233  10.5624  10.6659

          k = 0.1384 0.4167-0.3602 ( 45654 PWs)   bands (ev):

   -46.5668 -45.5070 -45.0757 -44.9893 -44.8913 -44.8781 -44.8447 -44.8312
   -44.8242 -44.8175 -44.8103 -44.8058 -44.7991 -44.7924 -19.5861 -19.4073
   -19.3126 -18.6028 -18.5092 -18.4025 -18.3515 -18.3168 -18.2765 -18.2407
   -18.1812 -18.1299 -18.0919 -18.0777 -18.0601 -18.0566 -18.0346 -18.0117
   -18.0022 -17.9976 -17.9662 -17.9408 -17.9331 -17.9186 -17.8893 -17.8500
   -17.8326 -17.8115 -17.7825 -17.7680 -17.7639 -17.7247 -17.7019 -17.6895
   -17.6794 -17.6621 -17.6427 -17.6172 -17.5921 -17.5809 -17.5645 -17.5176
    -3.7470  -3.6033  -3.3463  -3.3330  -3.2055  -3.0117  -2.9388  -2.6844
    -2.6152  -2.3920  -2.2972  -2.1671  -1.8399  -1.2390  -0.7374  -0.0633
     0.3448   0.6578   0.6891   1.1991   1.3553   1.6420   1.6630   1.7548
     1.9657   2.1368   2.3564   2.6055   2.7243   2.7721   2.9691   3.0174
     3.0688   3.1538   3.2105   3.3053   3.3609   3.3961   3.5039   3.5854
     3.6587   3.7306   3.8389   3.8526   3.8917   3.9271   4.0157   4.1209
     4.1449   4.2145   4.2443   4.4280   4.6030   4.6557   4.9261   5.1321
     5.2992   5.3630   5.4770   5.6427   5.7814   5.8872   6.0514   6.1276
     6.2150   6.3957   6.5253   6.7911   6.9347   7.0298   7.2394   7.4554
     7.7057   7.9727   8.1899   8.3375   8.4107   8.5485   8.7760   8.8643
     9.0454   9.1404   9.2037   9.4261   9.8248  10.0131  10.0847  10.3309
    10.4068  10.4583  10.6058  10.7027  10.7334

          k =-0.1237-0.5000 0.3219 ( 45668 PWs)   bands (ev):

   -46.5668 -45.5070 -45.0756 -44.9892 -44.8906 -44.8775 -44.8453 -44.8290
   -44.8245 -44.8159 -44.8138 -44.8049 -44.8006 -44.7928 -19.5868 -19.4060
   -19.3124 -18.6040 -18.5091 -18.4012 -18.3566 -18.3225 -18.2711 -18.2558
   -18.1607 -18.1448 -18.0754 -18.0637 -18.0449 -18.0308 -18.0095 -18.0086
   -17.9897 -17.9842 -17.9555 -17.9499 -17.9363 -17.9272 -17.9199 -17.8941
   -17.8535 -17.8152 -17.8002 -17.7701 -17.7635 -17.7263 -17.6860 -17.6807
   -17.6550 -17.6411 -17.6349 -17.6156 -17.6074 -17.6026 -17.5529 -17.5459
    -3.5833  -3.5784  -3.4447  -3.4338  -3.1762  -3.1671  -2.8471  -2.8449
    -2.5289  -2.5114  -2.3027  -2.2275  -1.8807  -1.2604  -0.7687  -0.0863
     0.4562   0.5659   0.8134   1.1140   1.4859   1.6868   2.1109   2.1626
     2.1703   2.1949   2.3093   2.3531   2.6665   2.7380   3.0042   3.0632
     3.1711   3.1998   3.2350   3.2553   3.3210   3.3400   3.4745   3.5620
     3.5878   3.6718   3.7314   3.7765   3.8534   3.9502   4.0337   4.0669
     4.1189   4.1875   4.2502   4.3108   4.5727   4.6427   4.9149   5.1220
     5.3008   5.3256   5.4547   5.6004   5.7634   5.8865   6.0345   6.0663
     6.3161   6.4339   6.5870   6.6570   6.8398   6.9210   7.1473   7.4138
     7.6605   7.9756   8.2100   8.3893   8.5339   8.6864   8.7865   8.8891
     8.9634   9.1350   9.1484   9.3853   9.8333  10.0371  10.2763  10.4513
    10.4896  10.5395  10.5989  10.6850  10.7439

          k =-0.1591-0.5000 0.4139 ( 45678 PWs)   bands (ev):

   -46.5668 -45.5070 -45.0756 -44.9892 -44.8906 -44.8775 -44.8453 -44.8291
   -44.8245 -44.8160 -44.8137 -44.8050 -44.8004 -44.7929 -19.5868 -19.4060
   -19.3125 -18.6038 -18.5091 -18.4020 -18.3551 -18.3228 -18.2720 -18.2560
   -18.1612 -18.1446 -18.0763 -18.0666 -18.0541 -18.0334 -18.0107 -18.0048
   -17.9963 -17.9868 -17.9627 -17.9394 -17.9290 -17.9174 -17.9121 -17.8873
   -17.8525 -17.8170 -17.8004 -17.7744 -17.7635 -17.7325 -17.6855 -17.6803
   -17.6556 -17.6417 -17.6337 -17.6160 -17.6096 -17.6010 -17.5553 -17.5435
    -3.7866  -3.6271  -3.3536  -3.3276  -3.2345  -3.0176  -2.9455  -2.7532
    -2.5509  -2.4872  -2.2691  -2.2010  -1.8568  -1.3048  -0.7582  -0.0903
     0.3257   0.5325   0.7798   1.0915   1.4893   1.6813   2.0393   2.1150
     2.1871   2.2577   2.2887   2.3779   2.5927   2.8391   2.8721   2.9958
     3.0996   3.1898   3.2532   3.3104   3.4096   3.4844   3.5303   3.6063
     3.6832   3.7537   3.8188   3.8489   3.9032   3.9669   4.0201   4.0713
     4.1190   4.1649   4.1900   4.3348   4.5688   4.6468   4.9229   5.1243
     5.2744   5.3058   5.4550   5.5759   5.7201   5.8745   5.9705   6.0697
     6.2670   6.3695   6.5438   6.6503   6.7306   6.8607   7.1049   7.4056
     7.7785   7.9748   8.3619   8.4842   8.5558   8.7310   8.8413   8.8701
     8.9475   9.1345   9.2305   9.4614   9.7859   9.9044  10.0914  10.1704
    10.3684  10.4761  10.6210  10.6852  10.8210

          k =-0.1944-0.5000 0.5058 ( 45653 PWs)   bands (ev):

   -46.5668 -45.5070 -45.0756 -44.9892 -44.8906 -44.8775 -44.8452 -44.8292
   -44.8245 -44.8160 -44.8134 -44.8051 -44.8000 -44.7933 -19.5868 -19.4059
   -19.3127 -18.6033 -18.5092 -18.4036 -18.3511 -18.3241 -18.2737 -18.2566
   -18.1622 -18.1444 -18.0813 -18.0710 -18.0682 -18.0368 -18.0182 -18.0080
   -17.9967 -17.9873 -17.9599 -17.9414 -17.9161 -17.9108 -17.8845 -17.8645
   -17.8474 -17.8213 -17.8007 -17.7866 -17.7636 -17.7506 -17.6842 -17.6794
   -17.6571 -17.6430 -17.6306 -17.6173 -17.6128 -17.5989 -17.5587 -17.5402
    -3.9407  -3.7690  -3.4472  -3.1426  -3.0581  -3.0356  -2.8913  -2.6960
    -2.5754  -2.4511  -2.1824  -2.1401  -1.8009  -1.4256  -0.7018  -0.1129
     0.0866   0.3951   0.7538   1.0050   1.5014   1.6471   1.9387   2.1090
     2.1632   2.2192   2.3549   2.3963   2.5321   2.6952   2.8287   3.0075
     3.0756   3.2764   3.3766   3.3845   3.4341   3.6042   3.6716   3.7105
     3.8312   3.8907   3.9297   3.9514   3.9930   4.0216   4.0754   4.0982
     4.1340   4.1539   4.2031   4.3612   4.5707   4.6576   4.9373   5.0835
     5.2041   5.2741   5.4328   5.4996   5.6354   5.7600   5.9142   6.0550
     6.1640   6.2675   6.4236   6.4831   6.6434   6.8550   7.1141   7.4427
     7.7169   7.9979   8.2473   8.7170   8.7577   8.8174   8.8980   9.0281
     9.1377   9.2882   9.3109   9.4842   9.5714   9.6768   9.8536  10.0191
    10.2046  10.3548  10.4897  10.6698  10.8638

          k =-0.2298-0.5000 0.5978 ( 45651 PWs)   bands (ev):

   -46.5668 -45.5070 -45.0756 -44.9892 -44.8906 -44.8775 -44.8452 -44.8293
   -44.8245 -44.8160 -44.8132 -44.8053 -44.7995 -44.7936 -19.5867 -19.4059
   -19.3129 -18.6030 -18.5092 -18.4049 -18.3472 -18.3260 -18.2748 -18.2573
   -18.1629 -18.1445 -18.0870 -18.0796 -18.0697 -18.0384 -18.0270 -18.0060
   -17.9972 -17.9873 -17.9569 -17.9441 -17.9102 -17.9028 -17.8680 -17.8484
   -17.8306 -17.8158 -17.8016 -17.8001 -17.7784 -17.7636 -17.6831 -17.6786
   -17.6584 -17.6440 -17.6265 -17.6206 -17.6143 -17.5977 -17.5607 -17.5382
    -4.0229  -3.8450  -3.5120  -3.0835  -2.9969  -2.9491  -2.8442  -2.6761
    -2.5902  -2.4206  -2.0977  -2.0871  -1.7316  -1.5737  -0.5589  -0.3087
     0.0497   0.2247   0.7849   0.8926   1.5301   1.5873   1.8822   2.1010
     2.1434   2.1894   2.3871   2.4029   2.5037   2.6283   2.7324   2.9687
     3.2498   3.3441   3.4323   3.5338   3.5540   3.5849   3.6979   3.7379
     3.7970   3.8708   3.9187   4.0112   4.0681   4.0945   4.1410   4.1802
     4.2001   4.2673   4.3459   4.4323   4.6006   4.7179   4.9271   5.0008
     5.1096   5.1827   5.3573   5.4904   5.5483   5.6977   5.8508   6.0168
     6.1145   6.1816   6.3085   6.4626   6.5913   6.8239   7.1642   7.3967
     7.6553   8.0866   8.2974   8.5463   8.6608   8.7980   8.9359   9.0010
     9.2105   9.3330   9.5019   9.6797   9.7595   9.8678   9.9026  10.0417
    10.1825  10.2844  10.4581  10.5583  10.7022

          k =-0.2651-0.5000 0.6898 ( 45651 PWs)   bands (ev):

   -46.5668 -45.5070 -45.0756 -44.9892 -44.8906 -44.8775 -44.8452 -44.8293
   -44.8245 -44.8160 -44.8132 -44.8053 -44.7995 -44.7936 -19.5867 -19.4059
   -19.3129 -18.6030 -18.5092 -18.4049 -18.3472 -18.3260 -18.2748 -18.2573
   -18.1629 -18.1445 -18.0870 -18.0796 -18.0697 -18.0384 -18.0270 -18.0060
   -17.9972 -17.9873 -17.9569 -17.9441 -17.9102 -17.9028 -17.8680 -17.8484
   -17.8306 -17.8158 -17.8016 -17.8001 -17.7784 -17.7636 -17.6831 -17.6786
   -17.6584 -17.6440 -17.6265 -17.6206 -17.6143 -17.5977 -17.5607 -17.5382
    -4.0229  -3.8450  -3.5120  -3.0835  -2.9969  -2.9491  -2.8442  -2.6761
    -2.5902  -2.4206  -2.0977  -2.0871  -1.7316  -1.5737  -0.5590  -0.3087
     0.0497   0.2247   0.7849   0.8926   1.5301   1.5873   1.8822   2.1010
     2.1434   2.1894   2.3871   2.4029   2.5037   2.6283   2.7324   2.9687
     3.2498   3.3441   3.4323   3.5338   3.5540   3.5849   3.6979   3.7379
     3.7970   3.8708   3.9187   4.0112   4.0681   4.0945   4.1410   4.1802
     4.2001   4.2673   4.3459   4.4324   4.6006   4.7179   4.9271   5.0008
     5.1096   5.1827   5.3573   5.4904   5.5483   5.6977   5.8508   6.0168
     6.1145   6.1816   6.3085   6.4626   6.5913   6.8239   7.1642   7.3967
     7.6553   8.0866   8.2974   8.5463   8.6608   8.7980   8.9359   9.0010
     9.2105   9.3330   9.5019   9.6797   9.7595   9.8678   9.9026  10.0417
    10.1825  10.2844  10.4581  10.5583  10.7021

          k =-0.3005-0.5000 0.7818 ( 45653 PWs)   bands (ev):

   -46.5668 -45.5070 -45.0756 -44.9892 -44.8906 -44.8775 -44.8452 -44.8292
   -44.8245 -44.8160 -44.8134 -44.8051 -44.8000 -44.7933 -19.5868 -19.4059
   -19.3127 -18.6033 -18.5092 -18.4036 -18.3511 -18.3241 -18.2737 -18.2566
   -18.1622 -18.1444 -18.0813 -18.0710 -18.0682 -18.0368 -18.0182 -18.0080
   -17.9967 -17.9873 -17.9599 -17.9414 -17.9161 -17.9108 -17.8845 -17.8645
   -17.8474 -17.8213 -17.8007 -17.7866 -17.7636 -17.7506 -17.6842 -17.6794
   -17.6571 -17.6430 -17.6306 -17.6173 -17.6128 -17.5989 -17.5587 -17.5402
    -3.9407  -3.7690  -3.4472  -3.1426  -3.0581  -3.0356  -2.8913  -2.6960
    -2.5754  -2.4511  -2.1824  -2.1401  -1.8009  -1.4256  -0.7018  -0.1129
     0.0866   0.3951   0.7538   1.0050   1.5014   1.6471   1.9387   2.1090
     2.1632   2.2192   2.3549   2.3963   2.5321   2.6952   2.8287   3.0075
     3.0756   3.2764   3.3766   3.3845   3.4341   3.6042   3.6716   3.7105
     3.8312   3.8907   3.9297   3.9514   3.9930   4.0216   4.0754   4.0982
     4.1340   4.1539   4.2031   4.3612   4.5707   4.6576   4.9373   5.0835
     5.2041   5.2741   5.4328   5.4996   5.6354   5.7600   5.9142   6.0550
     6.1640   6.2675   6.4236   6.4831   6.6434   6.8550   7.1141   7.4427
     7.7169   7.9979   8.2473   8.7170   8.7577   8.8174   8.8980   9.0281
     9.1377   9.2882   9.3109   9.4842   9.5714   9.6768   9.8536  10.0191
    10.2046  10.3548  10.4897  10.6698  10.8638

          k =-0.3358-0.5000 0.8737 ( 45678 PWs)   bands (ev):

   -46.5668 -45.5070 -45.0756 -44.9892 -44.8906 -44.8775 -44.8453 -44.8291
   -44.8245 -44.8160 -44.8137 -44.8050 -44.8004 -44.7929 -19.5868 -19.4060
   -19.3125 -18.6038 -18.5091 -18.4020 -18.3550 -18.3228 -18.2720 -18.2560
   -18.1612 -18.1446 -18.0763 -18.0666 -18.0541 -18.0334 -18.0107 -18.0048
   -17.9963 -17.9868 -17.9627 -17.9394 -17.9290 -17.9174 -17.9121 -17.8873
   -17.8525 -17.8170 -17.8004 -17.7744 -17.7635 -17.7325 -17.6855 -17.6803
   -17.6556 -17.6417 -17.6337 -17.6160 -17.6096 -17.6010 -17.5553 -17.5435
    -3.7866  -3.6271  -3.3536  -3.3276  -3.2345  -3.0176  -2.9455  -2.7532
    -2.5509  -2.4872  -2.2691  -2.2010  -1.8568  -1.3048  -0.7582  -0.0903
     0.3257   0.5325   0.7798   1.0915   1.4893   1.6813   2.0393   2.1150
     2.1871   2.2577   2.2887   2.3779   2.5927   2.8391   2.8721   2.9958
     3.0996   3.1898   3.2532   3.3104   3.4096   3.4844   3.5303   3.6063
     3.6832   3.7537   3.8189   3.8489   3.9032   3.9669   4.0201   4.0713
     4.1190   4.1649   4.1900   4.3348   4.5688   4.6468   4.9229   5.1243
     5.2744   5.3058   5.4550   5.5759   5.7201   5.8745   5.9705   6.0697
     6.2670   6.3695   6.5438   6.6503   6.7306   6.8607   7.1049   7.4056
     7.7785   7.9748   8.3619   8.4842   8.5558   8.7310   8.8413   8.8701
     8.9475   9.1345   9.2305   9.4614   9.7859   9.9044  10.0914  10.1704
    10.3684  10.4761  10.6210  10.6851  10.8210

          k = 0.1237-0.5000-0.3219 ( 45668 PWs)   bands (ev):

   -46.5668 -45.5070 -45.0756 -44.9892 -44.8906 -44.8775 -44.8453 -44.8290
   -44.8245 -44.8159 -44.8138 -44.8049 -44.8006 -44.7928 -19.5868 -19.4060
   -19.3124 -18.6040 -18.5091 -18.4012 -18.3566 -18.3225 -18.2711 -18.2558
   -18.1607 -18.1448 -18.0754 -18.0637 -18.0449 -18.0308 -18.0095 -18.0086
   -17.9897 -17.9842 -17.9555 -17.9499 -17.9363 -17.9272 -17.9199 -17.8941
   -17.8535 -17.8152 -17.8002 -17.7701 -17.7635 -17.7263 -17.6860 -17.6807
   -17.6550 -17.6411 -17.6349 -17.6156 -17.6074 -17.6026 -17.5529 -17.5459
    -3.5833  -3.5784  -3.4447  -3.4338  -3.1762  -3.1671  -2.8471  -2.8449
    -2.5289  -2.5114  -2.3027  -2.2275  -1.8808  -1.2603  -0.7687  -0.0863
     0.4562   0.5659   0.8134   1.1140   1.4859   1.6868   2.1109   2.1626
     2.1703   2.1949   2.3093   2.3531   2.6665   2.7380   3.0042   3.0632
     3.1711   3.1998   3.2350   3.2553   3.3210   3.3400   3.4745   3.5620
     3.5878   3.6718   3.7314   3.7765   3.8534   3.9502   4.0337   4.0669
     4.1189   4.1876   4.2502   4.3108   4.5727   4.6427   4.9149   5.1219
     5.3008   5.3255   5.4547   5.6004   5.7634   5.8865   6.0346   6.0663
     6.3161   6.4339   6.5870   6.6570   6.8398   6.9210   7.1473   7.4138
     7.6605   7.9756   8.2100   8.3893   8.5339   8.6864   8.7865   8.8891
     8.9634   9.1350   9.1484   9.3854   9.8333  10.0371  10.2763  10.4513
    10.4896  10.5395  10.5989  10.6850  10.7439

     the Fermi energy is     5.9806 ev

!    total energy              =   -9064.83850682 Ry
     estimated scf accuracy    <       0.00000071 Ry
     smearing contrib. (-TS)   =      -0.02277827 Ry
     internal energy E=F+TS    =   -9064.81572856 Ry

     The total energy is F=E-TS. E is the sum of the following terms:
     one-electron contribution =  -15639.85107924 Ry
     hartree contribution      =    7899.51689913 Ry
     xc contribution           =    -883.07763668 Ry
     ewald contribution        =    6736.83255699 Ry
     electric field correction =       0.00084251 Ry
     one-center paw contrib.   =   -7178.23731127 Ry

     convergence has been achieved in  43 iterations

     negative rho (up, down):  5.995E-05 0.000E+00

     Forces acting on atoms (cartesian axes, Ry/au):

     atom    1 type  1   force =    -0.03056958   -0.00000083   -0.00757464
     atom    2 type  1   force =    -0.00039004   -0.00000165   -0.00186143
     atom    3 type  1   force =    -0.01995771    0.00000068    0.01112982
     atom    4 type  1   force =     0.00036978    0.00000404    0.00067894
     atom    5 type  1   force =    -0.00770500    0.00000311   -0.00246502
     atom    6 type  1   force =     0.00088818   -0.00000266    0.00020064
     atom    7 type  1   force =    -0.00497404    0.00000311   -0.00065889
     atom    8 type  1   force =     0.00285770   -0.00000213   -0.00049330
     atom    9 type  1   force =     0.00031880    0.00000250    0.00091035
     atom   10 type  1   force =     0.00777289   -0.00000642    0.00728052
     atom   11 type  1   force =     0.00067340   -0.00000178    0.00022525
     atom   12 type  1   force =     0.02911196    0.00000900   -0.01042335
     atom   13 type  1   force =    -0.00087750    0.00000101   -0.00104643
     atom   14 type  1   force =     0.06735857   -0.00000868    0.02007378
     atom   15 type  2   force =     0.00306417   -0.00655841   -0.00432484
     atom   16 type  2   force =    -0.00078433   -0.00311005   -0.00017276
     atom   17 type  2   force =    -0.00779186   -0.00326378   -0.01162496
     atom   18 type  2   force =     0.00114095    0.00008791    0.00090041
     atom   19 type  2   force =    -0.00050719   -0.00268338   -0.00046016
     atom   20 type  2   force =     0.00254154   -0.00362036    0.00120309
     atom   21 type  2   force =     0.00044461   -0.00074667    0.00054597
     atom   22 type  2   force =     0.00210544   -0.00954774    0.00674864
     atom   23 type  2   force =    -0.00115943   -0.00106268   -0.00031119
     atom   24 type  2   force =     0.02852273   -0.00703811   -0.01543381
     atom   25 type  2   force =     0.00113943   -0.00020492    0.00041798
     atom   26 type  2   force =    -0.08886419   -0.12196011   -0.00043166
     atom   27 type  2   force =     0.03842564   -0.04898382    0.01509720
     atom   28 type  2   force =    -0.00068977   -0.00056209   -0.00010894
     atom   29 type  2   force =     0.00305964    0.00656062   -0.00432536
     atom   30 type  2   force =    -0.00078662    0.00310871   -0.00017276
     atom   31 type  2   force =    -0.00779240    0.00326042   -0.01163177
     atom   32 type  2   force =     0.00113558   -0.00008669    0.00089137
     atom   33 type  2   force =    -0.00051645    0.00268489   -0.00046646
     atom   34 type  2   force =     0.00253896    0.00361851    0.00119929
     atom   35 type  2   force =     0.00043462    0.00074607    0.00053530
     atom   36 type  2   force =     0.00210896    0.00954776    0.00675354
     atom   37 type  2   force =    -0.00116677    0.00105977   -0.00032071
     atom   38 type  2   force =     0.02852655    0.00703285   -0.01543766
     atom   39 type  2   force =     0.00113443    0.00020400    0.00041007
     atom   40 type  2   force =    -0.08886742    0.12197229   -0.00042819
     atom   41 type  2   force =     0.03842228    0.04898207    0.01508880
     atom   42 type  2   force =    -0.00069650    0.00056364   -0.00011666

     Total force =     0.254006     Total SCF correction =     0.003717

     Writing all to output data dir ./calc.save/
 
     init_run     :     62.71s CPU     63.49s WALL (       1 calls)
     electrons    :   3716.59s CPU   3744.87s WALL (       1 calls)
     forces       :     20.15s CPU     20.32s WALL (       1 calls)

     Called by init_run:
     wfcinit      :     58.47s CPU     59.00s WALL (       1 calls)
     potinit      :      1.37s CPU      1.40s WALL (       1 calls)
     hinit0       :      2.14s CPU      2.27s WALL (       1 calls)

     Called by electrons:
     c_bands      :   3186.33s CPU   3204.65s WALL (      43 calls)
     sum_band     :    472.95s CPU    480.14s WALL (      43 calls)
     v_of_rho     :      5.78s CPU      5.92s WALL (      44 calls)
     newd         :     14.07s CPU     16.36s WALL (      44 calls)
     PAW_pot      :     17.09s CPU     17.11s WALL (      44 calls)
     mix_rho      :     20.68s CPU     20.89s WALL (      43 calls)

     Called by c_bands:
     init_us_2    :     48.82s CPU     48.91s WALL (    7568 calls)
     init_us_2:cp :     48.76s CPU     48.88s WALL (    7568 calls)
     cegterg      :   2959.58s CPU   2976.18s WALL (    3698 calls)

     Called by *egterg:
     cdiaghg      :    322.36s CPU    322.73s WALL (   14738 calls)
     h_psi        :   1694.48s CPU   1708.72s WALL (   14824 calls)
     s_psi        :    304.96s CPU    305.09s WALL (   14824 calls)
     g_psi        :      7.76s CPU      7.79s WALL (   11040 calls)

     Called by h_psi:
     h_psi:calbec :    311.99s CPU    312.91s WALL (   14824 calls)
     vloc_psi     :   1059.12s CPU   1072.10s WALL (   14824 calls)
     add_vuspsi   :    304.10s CPU    304.25s WALL (   14824 calls)

     General routines
     calbec       :    463.50s CPU    464.89s WALL (   18866 calls)
     fft          :      4.08s CPU      4.23s WALL (     581 calls)
     ffts         :      8.36s CPU      8.40s WALL (   10687 calls)
     fftw         :   1157.95s CPU   1171.78s WALL ( 2879360 calls)
     interpolate  :      0.31s CPU      0.32s WALL (      44 calls)
 
     Parallel routines
 
     PWSCF        :      1h 3m CPU      1h 4m WALL

 
   This run was terminated on:   3:10: 8   8Aug2023            

=------------------------------------------------------------------------------=
   JOB DONE.
=------------------------------------------------------------------------------=
