  python dir          : /home/p.schindler/.conda/envs/dft3_8/lib/python3.8/site-packages/espresso
  espresso dir        : /home/p.schindler/q-e_7-1/bin/
  pseudo dir          : /home/p.schindler/q-e_7-1/PSPs/Vanderbilt_USPP_PBE/
  ase-espresso py git : 4b1d7e3-git



     Program PWSCF v.7.1 starts on  8Aug2023 at  2: 5:57 

     This program is part of the open-source Quantum ESPRESSO suite
     for quantum simulation of materials; please cite
         "P. Giannozzi et al., J. Phys.:Condens. Matter 21 395502 (2009);
         "P. Giannozzi et al., J. Phys.:Condens. Matter 29 465901 (2017);
         "P. Giannozzi et al., J. Chem. Phys. 152 154105 (2020);
          URL http://www.quantum-espresso.org", 
     in publications or presentations arising from this work. More details at
     http://www.quantum-espresso.org/quote

     Parallel version (MPI), running on    20 processors

     MPI processes distributed on     1 nodes
     224240 MiB available memory on the printing compute node when the environment starts
 
     Reading input from pw.inp

     Current dimensions of program PWSCF are:
     Max number of different atomic species (ntypx) = 10
     Max number of k-points (npk) =  40000
     Max angular momentum in pseudopotentials (lmaxx) =  4
     Presently no symmetry can be used with electric field


     IMPORTANT: XC functional enforced from input :
     Exchange-correlation= PBE
                           (   1   4   3   4   0   0   0)
     Any further DFT definition will be discarded
     Please, verify this is what you really want

 
     R & G space division:  proc/nbgrp/npool/nimage =      20
     Subspace diagonalization in iterative solution of the eigenvalue problem:
     a serial algorithm will be used

 
     Parallelization info
     --------------------
     sticks:   dense  smooth     PW     G-vecs:    dense   smooth      PW
     Min         700     280     75               198628    50244    6991
     Max         701     281     76               198647    50259    6998
     Sum       14011    5613   1507              3972727  1005061  139873
 
     Using Slab Decomposition
 


     bravais-lattice index     =            0
     lattice parameter (alat)  =      22.7251  a.u.
     unit-cell volume          =   15065.5632 (a.u.)^3
     number of atoms/cell      =           32
     number of atomic types    =            1
     number of electrons       =       352.00
     number of Kohn-Sham states=          206
     kinetic-energy cutoff     =      62.4738  Ry
     charge density cutoff     =     624.7385  Ry
     scf convergence threshold =      7.3E-07
     mixing beta               =       0.1500
     number of iterations used =           10  local-TF  mixing
     Exchange-correlation= PBE
                           (   1   4   3   4   0   0   0)

     celldm(1)=  22.725127  celldm(2)=   0.000000  celldm(3)=   0.000000
     celldm(4)=   0.000000  celldm(5)=   0.000000  celldm(6)=   0.000000

     crystal axes: (cart. coord. in units of alat)
               a(1) = (   0.000000   0.000000  -1.000000 )  
               a(2) = (   0.000000  -0.546073   0.000000 )  
               a(3) = (  -2.350801   0.000000   0.000000 )  

     reciprocal axes: (cart. coord. in units 2 pi/alat)
               b(1) = (  0.000000  0.000000 -1.000000 )  
               b(2) = (  0.000000 -1.831257  0.000000 )  
               b(3) = ( -0.425387  0.000000  0.000000 )  


     PseudoPot. # 1 for La read from file:
     /home/p.schindler/q-e_7-1/PSPs/Vanderbilt_USPP_PBE/La.UPF
     MD5 check sum: 5937b0c7494ba0601a847275249473aa
     Pseudo is Ultrasoft + core correction, Zval = 11.0
     Generated by new atomic code, or converted to UPF format
     Using radial grid of  995 points,  8 beta functions with: 
                l(1) =   0
                l(2) =   0
                l(3) =   1
                l(4) =   1
                l(5) =   2
                l(6) =   2
                l(7) =   3
                l(8) =   3
     Q(r) pseudized with  8 coefficients,  rinner =    1.700   1.700   1.700
                                                       1.700   1.700   1.700
                                                       1.700

     atomic species   valence    mass     pseudopotential
        La1           11.00   138.90547     La( 1.00)

     No symmetry found



   Cartesian axes

     site n.     atom                  positions (alat units)
         1           La1 tau(   1) = (  -0.6236685  -0.2730364   0.0000000  )
         2           La1 tau(   2) = (  -0.9389438  -0.2730364   0.0000000  )
         3           La1 tau(   3) = (  -1.2542192  -0.2730364   0.0000000  )
         4           La1 tau(   4) = (  -1.5694945  -0.2730364   0.0000000  )
         5           La1 tau(   5) = (  -0.7813062   0.0000000   0.0000000  )
         6           La1 tau(   6) = (  -1.0965815   0.0000000   0.0000000  )
         7           La1 tau(   7) = (  -1.4118568   0.0000000   0.0000000  )
         8           La1 tau(   8) = (  -1.7271322   0.0000000   0.0000000  )
         9           La1 tau(   9) = (  -0.6236685  -0.2730364  -0.5000000  )
        10           La1 tau(  10) = (  -0.9389438  -0.2730364  -0.5000000  )
        11           La1 tau(  11) = (  -1.2542192  -0.2730364  -0.5000000  )
        12           La1 tau(  12) = (  -1.5694945  -0.2730364  -0.5000000  )
        13           La1 tau(  13) = (  -0.7813062   0.0000000  -0.5000000  )
        14           La1 tau(  14) = (  -1.0965815   0.0000000  -0.5000000  )
        15           La1 tau(  15) = (  -1.4118568   0.0000000  -0.5000000  )
        16           La1 tau(  16) = (  -1.7271322   0.0000000  -0.5000000  )
        17           La1 tau(  17) = (  -0.7813062  -0.1820243  -0.7500000  )
        18           La1 tau(  18) = (  -1.0965815  -0.1820243  -0.7500000  )
        19           La1 tau(  19) = (  -1.4118568  -0.1820243  -0.7500000  )
        20           La1 tau(  20) = (  -1.7271322  -0.1820243  -0.7500000  )
        21           La1 tau(  21) = (  -0.6236685  -0.4550607  -0.7500000  )
        22           La1 tau(  22) = (  -0.9389438  -0.4550607  -0.7500000  )
        23           La1 tau(  23) = (  -1.2542192  -0.4550607  -0.7500000  )
        24           La1 tau(  24) = (  -1.5694945  -0.4550607  -0.7500000  )
        25           La1 tau(  25) = (  -0.7813062  -0.3640486  -0.2500000  )
        26           La1 tau(  26) = (  -1.0965815  -0.3640486  -0.2500000  )
        27           La1 tau(  27) = (  -1.4118568  -0.3640486  -0.2500000  )
        28           La1 tau(  28) = (  -1.7271322  -0.3640486  -0.2500000  )
        29           La1 tau(  29) = (  -0.6236685  -0.0910121  -0.2500000  )
        30           La1 tau(  30) = (  -0.9389438  -0.0910121  -0.2500000  )
        31           La1 tau(  31) = (  -1.2542192  -0.0910121  -0.2500000  )
        32           La1 tau(  32) = (  -1.5694945  -0.0910121  -0.2500000  )

     number of k points=    26  Gaussian smearing, width (Ry)=  0.0147
                       cart. coord. in units 2pi/alat
        k(    1) = (   0.0000000   0.0000000   0.0000000), wk =   0.0416667
        k(    2) = (   0.0000000  -0.2289072   0.0000000), wk =   0.0833333
        k(    3) = (   0.0000000  -0.4578143   0.0000000), wk =   0.0833333
        k(    4) = (   0.0000000  -0.6867215   0.0000000), wk =   0.0833333
        k(    5) = (   0.0000000   0.9156287   0.0000000), wk =   0.0416667
        k(    6) = (   0.0000000   0.0000000  -0.1666667), wk =   0.0833333
        k(    7) = (   0.0000000  -0.2289072  -0.1666667), wk =   0.0833333
        k(    8) = (   0.0000000  -0.4578143  -0.1666667), wk =   0.0833333
        k(    9) = (   0.0000000  -0.6867215  -0.1666667), wk =   0.0833333
        k(   10) = (   0.0000000   0.9156287  -0.1666667), wk =   0.0833333
        k(   11) = (   0.0000000   0.6867215  -0.1666667), wk =   0.0833333
        k(   12) = (   0.0000000   0.4578143  -0.1666667), wk =   0.0833333
        k(   13) = (   0.0000000   0.2289072  -0.1666667), wk =   0.0833333
        k(   14) = (   0.0000000   0.0000000  -0.3333333), wk =   0.0833333
        k(   15) = (   0.0000000  -0.2289072  -0.3333333), wk =   0.0833333
        k(   16) = (   0.0000000  -0.4578143  -0.3333333), wk =   0.0833333
        k(   17) = (   0.0000000  -0.6867215  -0.3333333), wk =   0.0833333
        k(   18) = (   0.0000000   0.9156287  -0.3333333), wk =   0.0833333
        k(   19) = (   0.0000000   0.6867215  -0.3333333), wk =   0.0833333
        k(   20) = (   0.0000000   0.4578143  -0.3333333), wk =   0.0833333
        k(   21) = (   0.0000000   0.2289072  -0.3333333), wk =   0.0833333
        k(   22) = (   0.0000000   0.0000000   0.5000000), wk =   0.0416667
        k(   23) = (   0.0000000  -0.2289072   0.5000000), wk =   0.0833333
        k(   24) = (   0.0000000  -0.4578143   0.5000000), wk =   0.0833333
        k(   25) = (   0.0000000  -0.6867215   0.5000000), wk =   0.0833333
        k(   26) = (   0.0000000   0.9156287   0.5000000), wk =   0.0416667

     Dense  grid:  3972727 G-vectors     FFT dimensions: ( 192, 100, 432)

     Smooth grid:  1005061 G-vectors     FFT dimensions: ( 120,  64, 270)

     Estimated max dynamical RAM per process >       2.66 GB

     Estimated total dynamical RAM >      53.28 GB

     Initial potential from superposition of free atoms

     starting charge     350.9738, renormalised to     352.0000

     negative rho (up, down):  2.241E+00 0.000E+00
 
     Adding external electric field

     Computed dipole along edir(3) : 
        Dipole                0.0000 Ry au,          0.0000 Debye
        Dipole field          0.0000 Ry au, 
 
        Potential amp.       -0.0000 Ry
        Total length         52.0867 bohr
 
     Starting wfcs are  640 randomized atomic wfcs

     total cpu time spent up to now is      162.1 secs

     Self-consistent Calculation

     iteration #  1     ecut=    62.47 Ry     beta= 0.15
     Davidson diagonalization with overlap
     ethr =  1.00E-02,  avg # of iterations =  2.0

     negative rho (up, down):  2.140E+00 0.000E+00
 
     Adding external electric field

     Computed dipole along edir(3) : 
        Dipole               -0.0289 Ry au,         -0.0736 Debye
        Dipole field         -0.0000 Ry au, 
 
        Potential amp.        0.0025 Ry
        Total length         52.0867 bohr
 

     total cpu time spent up to now is      322.4 secs

     total energy              =   -3282.91784204 Ry
     estimated scf accuracy    <      36.07919516 Ry

     iteration #  2     ecut=    62.47 Ry     beta= 0.15
     Davidson diagonalization with overlap
     ethr =  1.00E-02,  avg # of iterations =  1.0

     negative rho (up, down):  1.533E+00 0.000E+00
 
     Adding external electric field

     Computed dipole along edir(3) : 
        Dipole               -0.2793 Ry au,         -0.7098 Debye
        Dipole field         -0.0002 Ry au, 
 
        Potential amp.        0.0243 Ry
        Total length         52.0867 bohr
 

     total cpu time spent up to now is      460.7 secs

     total energy              =   -3280.72445537 Ry
     estimated scf accuracy    <      28.96247576 Ry

     iteration #  3     ecut=    62.47 Ry     beta= 0.15
     Davidson diagonalization with overlap
     ethr =  8.23E-03,  avg # of iterations =  1.2

     negative rho (up, down):  1.669E+00 0.000E+00
 
     Adding external electric field

     Computed dipole along edir(3) : 
        Dipole               -0.3188 Ry au,         -0.8102 Debye
        Dipole field         -0.0003 Ry au, 
 
        Potential amp.        0.0277 Ry
        Total length         52.0867 bohr
 

     total cpu time spent up to now is      600.9 secs

     total energy              =   -3281.72328805 Ry
     estimated scf accuracy    <       2.92167057 Ry

     iteration #  4     ecut=    62.47 Ry     beta= 0.15
     Davidson diagonalization with overlap
     ethr =  8.30E-04,  avg # of iterations =  5.9

     negative rho (up, down):  1.744E+00 0.000E+00
 
     Adding external electric field

     Computed dipole along edir(3) : 
        Dipole               -0.4020 Ry au,         -1.0217 Debye
        Dipole field         -0.0003 Ry au, 
 
        Potential amp.        0.0349 Ry
        Total length         52.0867 bohr
 

     total cpu time spent up to now is      775.6 secs

     total energy              =   -3281.88102996 Ry
     estimated scf accuracy    <       2.28779089 Ry

     iteration #  5     ecut=    62.47 Ry     beta= 0.15
     Davidson diagonalization with overlap
     ethr =  6.50E-04,  avg # of iterations =  1.2

     negative rho (up, down):  1.483E+00 0.000E+00
 
     Adding external electric field

     Computed dipole along edir(3) : 
        Dipole               -0.7056 Ry au,         -1.7935 Debye
        Dipole field         -0.0006 Ry au, 
 
        Potential amp.        0.0613 Ry
        Total length         52.0867 bohr
 

     total cpu time spent up to now is      915.5 secs

     total energy              =   -3281.54320760 Ry
     estimated scf accuracy    <       3.51541916 Ry

     iteration #  6     ecut=    62.47 Ry     beta= 0.15
     Davidson diagonalization with overlap
     ethr =  6.50E-04,  avg # of iterations =  8.4

     negative rho (up, down):  1.472E+00 0.000E+00
 
     Adding external electric field

     Computed dipole along edir(3) : 
        Dipole               -0.5593 Ry au,         -1.4216 Debye
        Dipole field         -0.0005 Ry au, 
 
        Potential amp.        0.0486 Ry
        Total length         52.0867 bohr
 

     total cpu time spent up to now is     1125.7 secs

     total energy              =   -3282.08693985 Ry
     estimated scf accuracy    <       8.73869645 Ry

     iteration #  7     ecut=    62.47 Ry     beta= 0.15
     Davidson diagonalization with overlap
     ethr =  6.50E-04,  avg # of iterations =  1.7

     negative rho (up, down):  1.582E+00 0.000E+00
 
     Adding external electric field

     Computed dipole along edir(3) : 
        Dipole               -0.7490 Ry au,         -1.9038 Debye
        Dipole field         -0.0006 Ry au, 
 
        Potential amp.        0.0651 Ry
        Total length         52.0867 bohr
 

     total cpu time spent up to now is     1270.8 secs

     total energy              =   -3281.55747972 Ry
     estimated scf accuracy    <      10.92947184 Ry

     iteration #  8     ecut=    62.47 Ry     beta= 0.15
     Davidson diagonalization with overlap
     ethr =  6.50E-04,  avg # of iterations =  2.2

     negative rho (up, down):  1.730E+00 0.000E+00
 
     Adding external electric field

     Computed dipole along edir(3) : 
        Dipole               -1.0437 Ry au,         -2.6529 Debye
        Dipole field         -0.0009 Ry au, 
 
        Potential amp.        0.0907 Ry
        Total length         52.0867 bohr
 

     total cpu time spent up to now is     1423.9 secs

     total energy              =   -3281.64431471 Ry
     estimated scf accuracy    <       0.76530272 Ry

     iteration #  9     ecut=    62.47 Ry     beta= 0.15
     Davidson diagonalization with overlap
     ethr =  2.17E-04,  avg # of iterations =  9.8

     negative rho (up, down):  1.726E+00 0.000E+00
 
     Adding external electric field

     Computed dipole along edir(3) : 
        Dipole               -1.0309 Ry au,         -2.6203 Debye
        Dipole field         -0.0009 Ry au, 
 
        Potential amp.        0.0896 Ry
        Total length         52.0867 bohr
 

     total cpu time spent up to now is     1665.5 secs

     total energy              =   -3282.07288088 Ry
     estimated scf accuracy    <      11.54078239 Ry

     iteration # 10     ecut=    62.47 Ry     beta= 0.15
     Davidson diagonalization with overlap
     ethr =  2.17E-04,  avg # of iterations =  1.4

     negative rho (up, down):  1.715E+00 0.000E+00
 
     Adding external electric field

     Computed dipole along edir(3) : 
        Dipole               -1.0463 Ry au,         -2.6594 Debye
        Dipole field         -0.0009 Ry au, 
 
        Potential amp.        0.0909 Ry
        Total length         52.0867 bohr
 

     total cpu time spent up to now is     1806.1 secs

     total energy              =   -3282.05591640 Ry
     estimated scf accuracy    <      11.10969656 Ry

     iteration # 11     ecut=    62.47 Ry     beta= 0.15
     Davidson diagonalization with overlap
     ethr =  2.17E-04,  avg # of iterations =  1.0

     negative rho (up, down):  1.666E+00 0.000E+00
 
     Adding external electric field

     Computed dipole along edir(3) : 
        Dipole               -1.2693 Ry au,         -3.2262 Debye
        Dipole field         -0.0011 Ry au, 
 
        Potential amp.        0.1103 Ry
        Total length         52.0867 bohr
 

     total cpu time spent up to now is     1944.2 secs

     total energy              =   -3281.85842226 Ry
     estimated scf accuracy    <      10.57316296 Ry

     iteration # 12     ecut=    62.47 Ry     beta= 0.15
     Davidson diagonalization with overlap
     ethr =  2.17E-04,  avg # of iterations =  1.0

     negative rho (up, down):  1.637E+00 0.000E+00
 
     Adding external electric field

     Computed dipole along edir(3) : 
        Dipole               -1.2668 Ry au,         -3.2198 Debye
        Dipole field         -0.0011 Ry au, 
 
        Potential amp.        0.1101 Ry
        Total length         52.0867 bohr
 

     total cpu time spent up to now is     2082.8 secs

     total energy              =   -3281.67533895 Ry
     estimated scf accuracy    <       7.12615565 Ry

     iteration # 13     ecut=    62.47 Ry     beta= 0.15
     Davidson diagonalization with overlap
     ethr =  2.17E-04,  avg # of iterations =  2.9

     negative rho (up, down):  1.652E+00 0.000E+00
 
     Adding external electric field

     Computed dipole along edir(3) : 
        Dipole               -1.1912 Ry au,         -3.0278 Debye
        Dipole field         -0.0010 Ry au, 
 
        Potential amp.        0.1035 Ry
        Total length         52.0867 bohr
 

     total cpu time spent up to now is     2239.6 secs

     total energy              =   -3281.69137860 Ry
     estimated scf accuracy    <       3.18970751 Ry

     iteration # 14     ecut=    62.47 Ry     beta= 0.15
     Davidson diagonalization with overlap
     ethr =  2.17E-04,  avg # of iterations =  1.9

     negative rho (up, down):  1.588E+00 0.000E+00
 
     Adding external electric field

     Computed dipole along edir(3) : 
        Dipole               -1.2491 Ry au,         -3.1749 Debye
        Dipole field         -0.0010 Ry au, 
 
        Potential amp.        0.1085 Ry
        Total length         52.0867 bohr
 

     total cpu time spent up to now is     2389.4 secs

     total energy              =   -3281.64080178 Ry
     estimated scf accuracy    <       2.88632870 Ry

     iteration # 15     ecut=    62.47 Ry     beta= 0.15
     Davidson diagonalization with overlap
     ethr =  2.17E-04,  avg # of iterations =  4.6

     negative rho (up, down):  1.596E+00 0.000E+00
 
     Adding external electric field

     Computed dipole along edir(3) : 
        Dipole               -1.2527 Ry au,         -3.1840 Debye
        Dipole field         -0.0010 Ry au, 
 
        Potential amp.        0.1088 Ry
        Total length         52.0867 bohr
 

     total cpu time spent up to now is     2549.6 secs

     total energy              =   -3281.68537881 Ry
     estimated scf accuracy    <       0.87673299 Ry

     iteration # 16     ecut=    62.47 Ry     beta= 0.15
     Davidson diagonalization with overlap
     ethr =  2.17E-04,  avg # of iterations =  1.0

     negative rho (up, down):  1.604E+00 0.000E+00
 
     Adding external electric field

     Computed dipole along edir(3) : 
        Dipole               -1.2783 Ry au,         -3.2491 Debye
        Dipole field         -0.0011 Ry au, 
 
        Potential amp.        0.1111 Ry
        Total length         52.0867 bohr
 

     total cpu time spent up to now is     2688.1 secs

     total energy              =   -3281.66423115 Ry
     estimated scf accuracy    <       0.80458115 Ry

     iteration # 17     ecut=    62.47 Ry     beta= 0.15
     Davidson diagonalization with overlap
     ethr =  2.17E-04,  avg # of iterations =  3.3

     negative rho (up, down):  1.767E+00 0.000E+00
 
     Adding external electric field

     Computed dipole along edir(3) : 
        Dipole               -1.0371 Ry au,         -2.6360 Debye
        Dipole field         -0.0009 Ry au, 
 
        Potential amp.        0.0901 Ry
        Total length         52.0867 bohr
 

     total cpu time spent up to now is     2843.8 secs

     total energy              =   -3281.68735702 Ry
     estimated scf accuracy    <       0.29438281 Ry

     iteration # 18     ecut=    62.47 Ry     beta= 0.15
     Davidson diagonalization with overlap
     c_bands:  3 eigenvalues not converged
     c_bands:  1 eigenvalues not converged
     c_bands:  4 eigenvalues not converged
     c_bands:  4 eigenvalues not converged
     c_bands:  3 eigenvalues not converged
     c_bands:  3 eigenvalues not converged
     c_bands:  4 eigenvalues not converged
     c_bands:  3 eigenvalues not converged
     c_bands:  2 eigenvalues not converged
     c_bands:  5 eigenvalues not converged
     ethr =  8.36E-05,  avg # of iterations = 21.8

     negative rho (up, down):  1.641E+00 0.000E+00
 
     Adding external electric field

     Computed dipole along edir(3) : 
        Dipole               -1.1477 Ry au,         -2.9172 Debye
        Dipole field         -0.0010 Ry au, 
 
        Potential amp.        0.0997 Ry
        Total length         52.0867 bohr
 

     total cpu time spent up to now is     3305.2 secs

     total energy              =   -3281.40702275 Ry
     estimated scf accuracy    <      15.50466778 Ry

     iteration # 19     ecut=    62.47 Ry     beta= 0.15
     Davidson diagonalization with overlap
     c_bands:  3 eigenvalues not converged
     c_bands:  2 eigenvalues not converged
     c_bands:  1 eigenvalues not converged
     c_bands:  4 eigenvalues not converged
     c_bands:  2 eigenvalues not converged
     c_bands:  2 eigenvalues not converged
     c_bands:  1 eigenvalues not converged
     c_bands:  2 eigenvalues not converged
     c_bands:  1 eigenvalues not converged
     c_bands:  2 eigenvalues not converged
     c_bands:  2 eigenvalues not converged
     c_bands:  3 eigenvalues not converged
     c_bands:  1 eigenvalues not converged
     c_bands:  1 eigenvalues not converged
     c_bands:  1 eigenvalues not converged
     c_bands:  3 eigenvalues not converged
     c_bands:  1 eigenvalues not converged
     c_bands:  4 eigenvalues not converged
     c_bands:  3 eigenvalues not converged
     c_bands:  3 eigenvalues not converged
     c_bands:  3 eigenvalues not converged
     c_bands:  1 eigenvalues not converged
     ethr =  8.36E-05,  avg # of iterations = 20.2

     negative rho (up, down):  1.633E+00 0.000E+00
 
     Adding external electric field

     Computed dipole along edir(3) : 
        Dipole               -1.2486 Ry au,         -3.1737 Debye
        Dipole field         -0.0010 Ry au, 
 
        Potential amp.        0.1085 Ry
        Total length         52.0867 bohr
 

     total cpu time spent up to now is     3640.7 secs

     total energy              =   -3281.68508528 Ry
     estimated scf accuracy    <       0.42458776 Ry

     iteration # 20     ecut=    62.47 Ry     beta= 0.15
     Davidson diagonalization with overlap
     ethr =  8.36E-05,  avg # of iterations =  1.5

     negative rho (up, down):  1.593E+00 0.000E+00
 
     Adding external electric field

     Computed dipole along edir(3) : 
        Dipole               -1.3512 Ry au,         -3.4344 Debye
        Dipole field         -0.0011 Ry au, 
 
        Potential amp.        0.1174 Ry
        Total length         52.0867 bohr
 

     total cpu time spent up to now is     3784.8 secs

     total energy              =   -3281.67733318 Ry
     estimated scf accuracy    <       0.18816052 Ry

     iteration # 21     ecut=    62.47 Ry     beta= 0.15
     Davidson diagonalization with overlap
     c_bands:  1 eigenvalues not converged
     c_bands:  1 eigenvalues not converged
     ethr =  5.35E-05,  avg # of iterations = 13.5

     negative rho (up, down):  1.601E+00 0.000E+00
 
     Adding external electric field

     Computed dipole along edir(3) : 
        Dipole               -1.3118 Ry au,         -3.3342 Debye
        Dipole field         -0.0011 Ry au, 
 
        Potential amp.        0.1140 Ry
        Total length         52.0867 bohr
 

     total cpu time spent up to now is     3997.7 secs

     total energy              =   -3281.68238099 Ry
     estimated scf accuracy    <       0.16238122 Ry

     iteration # 22     ecut=    62.47 Ry     beta= 0.15
     Davidson diagonalization with overlap
     ethr =  4.61E-05,  avg # of iterations =  3.3

     negative rho (up, down):  1.704E+00 0.000E+00
 
     Adding external electric field

     Computed dipole along edir(3) : 
        Dipole               -0.8005 Ry au,         -2.0348 Debye
        Dipole field         -0.0007 Ry au, 
 
        Potential amp.        0.0696 Ry
        Total length         52.0867 bohr
 

     total cpu time spent up to now is     4154.0 secs

     total energy              =   -3281.66694368 Ry
     estimated scf accuracy    <       0.26213721 Ry

     iteration # 23     ecut=    62.47 Ry     beta= 0.15
     Davidson diagonalization with overlap
     ethr =  4.61E-05,  avg # of iterations =  8.5

     negative rho (up, down):  1.691E+00 0.000E+00
 
     Adding external electric field

     Computed dipole along edir(3) : 
        Dipole               -0.8445 Ry au,         -2.1466 Debye
        Dipole field         -0.0007 Ry au, 
 
        Potential amp.        0.0734 Ry
        Total length         52.0867 bohr
 

     total cpu time spent up to now is     4336.1 secs

     total energy              =   -3281.68948524 Ry
     estimated scf accuracy    <       0.38835177 Ry

     iteration # 24     ecut=    62.47 Ry     beta= 0.15
     Davidson diagonalization with overlap
     c_bands:  2 eigenvalues not converged
     c_bands:  1 eigenvalues not converged
     c_bands:  3 eigenvalues not converged
     c_bands:  3 eigenvalues not converged
     c_bands:  2 eigenvalues not converged
     ethr =  4.61E-05,  avg # of iterations = 10.5

     negative rho (up, down):  1.728E+00 0.000E+00
 
     Adding external electric field

     Computed dipole along edir(3) : 
        Dipole               -0.7623 Ry au,         -1.9377 Debye
        Dipole field         -0.0006 Ry au, 
 
        Potential amp.        0.0662 Ry
        Total length         52.0867 bohr
 

     total cpu time spent up to now is     4524.5 secs

     total energy              =   -3281.70215675 Ry
     estimated scf accuracy    <       0.21003669 Ry

     iteration # 25     ecut=    62.47 Ry     beta= 0.15
     Davidson diagonalization with overlap
     ethr =  4.61E-05,  avg # of iterations =  2.6

     negative rho (up, down):  1.723E+00 0.000E+00
 
     Adding external electric field

     Computed dipole along edir(3) : 
        Dipole               -0.7971 Ry au,         -2.0259 Debye
        Dipole field         -0.0007 Ry au, 
 
        Potential amp.        0.0693 Ry
        Total length         52.0867 bohr
 

     total cpu time spent up to now is     4676.6 secs

     total energy              =   -3281.71323807 Ry
     estimated scf accuracy    <       0.26553974 Ry

     iteration # 26     ecut=    62.47 Ry     beta= 0.15
     Davidson diagonalization with overlap
     ethr =  4.61E-05,  avg # of iterations =  1.0

     negative rho (up, down):  1.728E+00 0.000E+00
 
     Adding external electric field

     Computed dipole along edir(3) : 
        Dipole               -0.6891 Ry au,         -1.7516 Debye
        Dipole field         -0.0006 Ry au, 
 
        Potential amp.        0.0599 Ry
        Total length         52.0867 bohr
 

     total cpu time spent up to now is     4815.1 secs

     total energy              =   -3281.67775444 Ry
     estimated scf accuracy    <       0.44050945 Ry

     iteration # 27     ecut=    62.47 Ry     beta= 0.15
     Davidson diagonalization with overlap
     ethr =  4.61E-05,  avg # of iterations =  1.7

     negative rho (up, down):  1.739E+00 0.000E+00
 
     Adding external electric field

     Computed dipole along edir(3) : 
        Dipole               -0.5991 Ry au,         -1.5228 Debye
        Dipole field         -0.0005 Ry au, 
 
        Potential amp.        0.0521 Ry
        Total length         52.0867 bohr
 

     total cpu time spent up to now is     4961.4 secs

     total energy              =   -3281.69892615 Ry
     estimated scf accuracy    <       0.24577857 Ry

     iteration # 28     ecut=    62.47 Ry     beta= 0.15
     Davidson diagonalization with overlap
     ethr =  4.61E-05,  avg # of iterations =  1.0

     negative rho (up, down):  1.746E+00 0.000E+00
 
     Adding external electric field

     Computed dipole along edir(3) : 
        Dipole               -0.5755 Ry au,         -1.4628 Debye
        Dipole field         -0.0005 Ry au, 
 
        Potential amp.        0.0500 Ry
        Total length         52.0867 bohr
 

     total cpu time spent up to now is     5100.3 secs

     total energy              =   -3281.68744058 Ry
     estimated scf accuracy    <       0.39344189 Ry

     iteration # 29     ecut=    62.47 Ry     beta= 0.15
     Davidson diagonalization with overlap
     ethr =  4.61E-05,  avg # of iterations =  1.2

     negative rho (up, down):  1.778E+00 0.000E+00
 
     Adding external electric field

     Computed dipole along edir(3) : 
        Dipole               -0.4484 Ry au,         -1.1397 Debye
        Dipole field         -0.0004 Ry au, 
 
        Potential amp.        0.0390 Ry
        Total length         52.0867 bohr
 

     total cpu time spent up to now is     5241.2 secs

     total energy              =   -3281.68934836 Ry
     estimated scf accuracy    <       0.26180293 Ry

     iteration # 30     ecut=    62.47 Ry     beta= 0.15
     Davidson diagonalization with overlap
     c_bands:  2 eigenvalues not converged
     c_bands:  1 eigenvalues not converged
     c_bands:  1 eigenvalues not converged
     c_bands:  2 eigenvalues not converged
     c_bands:  2 eigenvalues not converged
     c_bands:  2 eigenvalues not converged
     c_bands:  2 eigenvalues not converged
     ethr =  4.61E-05,  avg # of iterations = 14.3

     negative rho (up, down):  1.761E+00 0.000E+00
 
     Adding external electric field

     Computed dipole along edir(3) : 
        Dipole               -0.5594 Ry au,         -1.4219 Debye
        Dipole field         -0.0005 Ry au, 
 
        Potential amp.        0.0486 Ry
        Total length         52.0867 bohr
 

     total cpu time spent up to now is     5468.5 secs

     total energy              =   -3281.69902347 Ry
     estimated scf accuracy    <       0.26660297 Ry

     iteration # 31     ecut=    62.47 Ry     beta= 0.15
     Davidson diagonalization with overlap
     ethr =  4.61E-05,  avg # of iterations =  1.2

     negative rho (up, down):  1.817E+00 0.000E+00
 
     Adding external electric field

     Computed dipole along edir(3) : 
        Dipole               -0.2933 Ry au,         -0.7455 Debye
        Dipole field         -0.0002 Ry au, 
 
        Potential amp.        0.0255 Ry
        Total length         52.0867 bohr
 

     total cpu time spent up to now is     5609.6 secs

     total energy              =   -3281.71247596 Ry
     estimated scf accuracy    <       0.25791449 Ry

     iteration # 32     ecut=    62.47 Ry     beta= 0.15
     Davidson diagonalization with overlap
     c_bands:  3 eigenvalues not converged
     c_bands:  1 eigenvalues not converged
     c_bands:  2 eigenvalues not converged
     c_bands:  1 eigenvalues not converged
     c_bands:  1 eigenvalues not converged
     c_bands:  1 eigenvalues not converged
     c_bands:  1 eigenvalues not converged
     c_bands:  1 eigenvalues not converged
     ethr =  4.61E-05,  avg # of iterations = 18.0

     negative rho (up, down):  1.772E+00 0.000E+00
 
     Adding external electric field

     Computed dipole along edir(3) : 
        Dipole               -0.4104 Ry au,         -1.0432 Debye
        Dipole field         -0.0003 Ry au, 
 
        Potential amp.        0.0357 Ry
        Total length         52.0867 bohr
 

     total cpu time spent up to now is     5886.8 secs

     total energy              =   -3281.66037128 Ry
     estimated scf accuracy    <       6.46858490 Ry

     iteration # 33     ecut=    62.47 Ry     beta= 0.15
     Davidson diagonalization with overlap
     ethr =  4.61E-05,  avg # of iterations =  9.0

     negative rho (up, down):  1.756E+00 0.000E+00
 
     Adding external electric field

     Computed dipole along edir(3) : 
        Dipole               -0.4307 Ry au,         -1.0946 Debye
        Dipole field         -0.0004 Ry au, 
 
        Potential amp.        0.0374 Ry
        Total length         52.0867 bohr
 

     total cpu time spent up to now is     6075.7 secs

     total energy              =   -3281.66859129 Ry
     estimated scf accuracy    <       0.60410286 Ry

     iteration # 34     ecut=    62.47 Ry     beta= 0.15
     Davidson diagonalization with overlap
     c_bands:  1 eigenvalues not converged
     c_bands:  2 eigenvalues not converged
     c_bands:  2 eigenvalues not converged
     c_bands:  2 eigenvalues not converged
     c_bands:  2 eigenvalues not converged
     c_bands:  4 eigenvalues not converged
     c_bands:  1 eigenvalues not converged
     c_bands:  2 eigenvalues not converged
     ethr =  4.61E-05,  avg # of iterations = 15.3

     negative rho (up, down):  1.772E+00 0.000E+00
 
     Adding external electric field

     Computed dipole along edir(3) : 
        Dipole               -0.3246 Ry au,         -0.8250 Debye
        Dipole field         -0.0003 Ry au, 
 
        Potential amp.        0.0282 Ry
        Total length         52.0867 bohr
 

     total cpu time spent up to now is     6304.2 secs

     total energy              =   -3281.69792502 Ry
     estimated scf accuracy    <       0.17084815 Ry

     iteration # 35     ecut=    62.47 Ry     beta= 0.15
     Davidson diagonalization with overlap
     ethr =  4.61E-05,  avg # of iterations =  3.8

     negative rho (up, down):  1.787E+00 0.000E+00
 
     Adding external electric field

     Computed dipole along edir(3) : 
        Dipole               -0.5568 Ry au,         -1.4151 Debye
        Dipole field         -0.0005 Ry au, 
 
        Potential amp.        0.0484 Ry
        Total length         52.0867 bohr
 

     total cpu time spent up to now is     6462.3 secs

     total energy              =   -3281.69291590 Ry
     estimated scf accuracy    <       0.33161759 Ry

     iteration # 36     ecut=    62.47 Ry     beta= 0.15
     Davidson diagonalization with overlap
     ethr =  4.61E-05,  avg # of iterations =  1.7

     negative rho (up, down):  1.709E+00 0.000E+00
 
     Adding external electric field

     Computed dipole along edir(3) : 
        Dipole                0.0262 Ry au,          0.0666 Debye
        Dipole field          0.0000 Ry au, 
 
        Potential amp.       -0.0023 Ry
        Total length         52.0867 bohr
 

     total cpu time spent up to now is     6608.4 secs

     total energy              =   -3281.69722276 Ry
     estimated scf accuracy    <       0.36085054 Ry

     iteration # 37     ecut=    62.47 Ry     beta= 0.15
     Davidson diagonalization with overlap
     c_bands:  2 eigenvalues not converged
     c_bands:  1 eigenvalues not converged
     c_bands:  1 eigenvalues not converged
     c_bands:  1 eigenvalues not converged
     ethr =  4.61E-05,  avg # of iterations = 15.2

     negative rho (up, down):  1.740E+00 0.000E+00
 
     Adding external electric field

     Computed dipole along edir(3) : 
        Dipole               -0.1460 Ry au,         -0.3711 Debye
        Dipole field         -0.0001 Ry au, 
 
        Potential amp.        0.0127 Ry
        Total length         52.0867 bohr
 

     total cpu time spent up to now is     6865.4 secs

     total energy              =   -3281.66254694 Ry
     estimated scf accuracy    <       2.25331333 Ry

     iteration # 38     ecut=    62.47 Ry     beta= 0.15
     Davidson diagonalization with overlap
     ethr =  4.61E-05,  avg # of iterations =  5.0

     negative rho (up, down):  1.752E+00 0.000E+00
 
     Adding external electric field

     Computed dipole along edir(3) : 
        Dipole               -0.2245 Ry au,         -0.5706 Debye
        Dipole field         -0.0002 Ry au, 
 
        Potential amp.        0.0195 Ry
        Total length         52.0867 bohr
 

     total cpu time spent up to now is     7038.0 secs

     total energy              =   -3281.68207289 Ry
     estimated scf accuracy    <       0.70766144 Ry

     iteration # 39     ecut=    62.47 Ry     beta= 0.15
     Davidson diagonalization with overlap
     c_bands:  1 eigenvalues not converged
     c_bands:  1 eigenvalues not converged
     c_bands:  2 eigenvalues not converged
     c_bands:  3 eigenvalues not converged
     c_bands:  1 eigenvalues not converged
     ethr =  4.61E-05,  avg # of iterations = 14.7

     negative rho (up, down):  1.753E+00 0.000E+00
 
     Adding external electric field

     Computed dipole along edir(3) : 
        Dipole               -0.2358 Ry au,         -0.5993 Debye
        Dipole field         -0.0002 Ry au, 
 
        Potential amp.        0.0205 Ry
        Total length         52.0867 bohr
 

     total cpu time spent up to now is     7296.2 secs

     total energy              =   -3281.78071487 Ry
     estimated scf accuracy    <      34.85228390 Ry

     iteration # 40     ecut=    62.47 Ry     beta= 0.15
     Davidson diagonalization with overlap
     ethr =  4.61E-05,  avg # of iterations =  3.5

     negative rho (up, down):  1.749E+00 0.000E+00
 
     Adding external electric field

     Computed dipole along edir(3) : 
        Dipole               -0.2441 Ry au,         -0.6204 Debye
        Dipole field         -0.0002 Ry au, 
 
        Potential amp.        0.0212 Ry
        Total length         52.0867 bohr
 

     total cpu time spent up to now is     7448.6 secs

     total energy              =   -3281.76554454 Ry
     estimated scf accuracy    <      38.50202480 Ry

     iteration # 41     ecut=    62.47 Ry     beta= 0.15
     Davidson diagonalization with overlap
     ethr =  4.61E-05,  avg # of iterations =  1.0

     negative rho (up, down):  1.746E+00 0.000E+00
 
     Adding external electric field

     Computed dipole along edir(3) : 
        Dipole               -0.2437 Ry au,         -0.6194 Debye
        Dipole field         -0.0002 Ry au, 
 
        Potential amp.        0.0212 Ry
        Total length         52.0867 bohr
 

     total cpu time spent up to now is     7586.6 secs

     total energy              =   -3281.74890759 Ry
     estimated scf accuracy    <      30.93580874 Ry

     iteration # 42     ecut=    62.47 Ry     beta= 0.15
     Davidson diagonalization with overlap
     ethr =  4.61E-05,  avg # of iterations =  1.0

     negative rho (up, down):  1.738E+00 0.000E+00
 
     Adding external electric field

     Computed dipole along edir(3) : 
        Dipole               -0.2340 Ry au,         -0.5947 Debye
        Dipole field         -0.0002 Ry au, 
 
        Potential amp.        0.0203 Ry
        Total length         52.0867 bohr
 

     total cpu time spent up to now is     7724.7 secs

     total energy              =   -3281.71499720 Ry
     estimated scf accuracy    <      24.81860022 Ry

     iteration # 43     ecut=    62.47 Ry     beta= 0.15
     Davidson diagonalization with overlap
     ethr =  4.61E-05,  avg # of iterations =  1.0

     negative rho (up, down):  1.726E+00 0.000E+00
 
     Adding external electric field

     Computed dipole along edir(3) : 
        Dipole               -0.2306 Ry au,         -0.5862 Debye
        Dipole field         -0.0002 Ry au, 
 
        Potential amp.        0.0200 Ry
        Total length         52.0867 bohr
 

     total cpu time spent up to now is     7863.0 secs

     total energy              =   -3281.54200178 Ry
     estimated scf accuracy    <      13.19787104 Ry

     iteration # 44     ecut=    62.47 Ry     beta= 0.15
     Davidson diagonalization with overlap
     c_bands:  1 eigenvalues not converged
     c_bands:  2 eigenvalues not converged
     c_bands:  4 eigenvalues not converged
     c_bands:  1 eigenvalues not converged
     c_bands:  2 eigenvalues not converged
     c_bands:  2 eigenvalues not converged
     c_bands:  4 eigenvalues not converged
     c_bands:  3 eigenvalues not converged
     c_bands:  2 eigenvalues not converged
     c_bands:  2 eigenvalues not converged
     c_bands:  4 eigenvalues not converged
     c_bands:  2 eigenvalues not converged
     ethr =  4.61E-05,  avg # of iterations = 19.2

     negative rho (up, down):  1.720E+00 0.000E+00
 
     Adding external electric field

     Computed dipole along edir(3) : 
        Dipole               -0.0584 Ry au,         -0.1485 Debye
        Dipole field         -0.0000 Ry au, 
 
        Potential amp.        0.0051 Ry
        Total length         52.0867 bohr
 

     total cpu time spent up to now is     8118.9 secs

     total energy              =   -3281.66621660 Ry
     estimated scf accuracy    <       0.16894170 Ry

     iteration # 45     ecut=    62.47 Ry     beta= 0.15
     Davidson diagonalization with overlap
     c_bands:  3 eigenvalues not converged
     ethr =  4.61E-05,  avg # of iterations =  1.9

     negative rho (up, down):  1.703E+00 0.000E+00
 
     Adding external electric field

     Computed dipole along edir(3) : 
        Dipole                0.4160 Ry au,          1.0574 Debye
        Dipole field          0.0003 Ry au, 
 
        Potential amp.       -0.0361 Ry
        Total length         52.0867 bohr
 

     total cpu time spent up to now is     8264.0 secs

     total energy              =   -3281.64928420 Ry
     estimated scf accuracy    <       0.15163608 Ry

     iteration # 46     ecut=    62.47 Ry     beta= 0.15
     Davidson diagonalization with overlap
     c_bands:  1 eigenvalues not converged
     c_bands:  1 eigenvalues not converged
     c_bands:  1 eigenvalues not converged
     c_bands:  1 eigenvalues not converged
     c_bands:  1 eigenvalues not converged
     ethr =  4.31E-05,  avg # of iterations = 14.4

     negative rho (up, down):  1.708E+00 0.000E+00
 
     Adding external electric field

     Computed dipole along edir(3) : 
        Dipole                0.0805 Ry au,          0.2047 Debye
        Dipole field          0.0001 Ry au, 
 
        Potential amp.       -0.0070 Ry
        Total length         52.0867 bohr
 

     total cpu time spent up to now is     8517.6 secs

     total energy              =   -3281.64299852 Ry
     estimated scf accuracy    <       1.05331079 Ry

     iteration # 47     ecut=    62.47 Ry     beta= 0.15
     Davidson diagonalization with overlap
     ethr =  4.31E-05,  avg # of iterations =  2.7

     negative rho (up, down):  1.714E+00 0.000E+00
 
     Adding external electric field

     Computed dipole along edir(3) : 
        Dipole                0.1374 Ry au,          0.3491 Debye
        Dipole field          0.0001 Ry au, 
 
        Potential amp.       -0.0119 Ry
        Total length         52.0867 bohr
 

     total cpu time spent up to now is     8675.0 secs

     total energy              =   -3281.64617301 Ry
     estimated scf accuracy    <       0.13317959 Ry

     iteration # 48     ecut=    62.47 Ry     beta= 0.15
     Davidson diagonalization with overlap
     ethr =  3.78E-05,  avg # of iterations =  7.8

     negative rho (up, down):  1.716E+00 0.000E+00
 
     Adding external electric field

     Computed dipole along edir(3) : 
        Dipole                0.1314 Ry au,          0.3341 Debye
        Dipole field          0.0001 Ry au, 
 
        Potential amp.       -0.0114 Ry
        Total length         52.0867 bohr
 

     total cpu time spent up to now is     8862.5 secs

     total energy              =   -3281.65758967 Ry
     estimated scf accuracy    <       0.14362027 Ry

     iteration # 49     ecut=    62.47 Ry     beta= 0.15
     Davidson diagonalization with overlap
     ethr =  3.78E-05,  avg # of iterations =  1.0

     negative rho (up, down):  1.719E+00 0.000E+00
 
     Adding external electric field

     Computed dipole along edir(3) : 
        Dipole                0.0122 Ry au,          0.0310 Debye
        Dipole field          0.0000 Ry au, 
 
        Potential amp.       -0.0011 Ry
        Total length         52.0867 bohr
 

     total cpu time spent up to now is     9002.0 secs

     total energy              =   -3281.65723437 Ry
     estimated scf accuracy    <       0.27175709 Ry

     iteration # 50     ecut=    62.47 Ry     beta= 0.15
     Davidson diagonalization with overlap
     ethr =  3.78E-05,  avg # of iterations =  1.0

     negative rho (up, down):  1.716E+00 0.000E+00
 
     Adding external electric field

     Computed dipole along edir(3) : 
        Dipole                0.0334 Ry au,          0.0849 Debye
        Dipole field          0.0000 Ry au, 
 
        Potential amp.       -0.0029 Ry
        Total length         52.0867 bohr
 

     total cpu time spent up to now is     9140.1 secs

     total energy              =   -3281.65561353 Ry
     estimated scf accuracy    <       0.21510236 Ry

     iteration # 51     ecut=    62.47 Ry     beta= 0.15
     Davidson diagonalization with overlap
     ethr =  3.78E-05,  avg # of iterations =  1.0

     negative rho (up, down):  1.706E+00 0.000E+00
 
     Adding external electric field

     Computed dipole along edir(3) : 
        Dipole                0.0583 Ry au,          0.1481 Debye
        Dipole field          0.0000 Ry au, 
 
        Potential amp.       -0.0051 Ry
        Total length         52.0867 bohr
 

     total cpu time spent up to now is     9280.7 secs

     total energy              =   -3281.65467497 Ry
     estimated scf accuracy    <       0.13330406 Ry

     iteration # 52     ecut=    62.47 Ry     beta= 0.15
     Davidson diagonalization with overlap
     ethr =  3.78E-05,  avg # of iterations =  1.5

     negative rho (up, down):  1.704E+00 0.000E+00
 
     Adding external electric field

     Computed dipole along edir(3) : 
        Dipole                0.0326 Ry au,          0.0830 Debye
        Dipole field          0.0000 Ry au, 
 
        Potential amp.       -0.0028 Ry
        Total length         52.0867 bohr
 

     total cpu time spent up to now is     9425.7 secs

     total energy              =   -3281.65398045 Ry
     estimated scf accuracy    <       0.10566633 Ry

     iteration # 53     ecut=    62.47 Ry     beta= 0.15
     Davidson diagonalization with overlap
     ethr =  3.00E-05,  avg # of iterations =  1.1

     negative rho (up, down):  1.703E+00 0.000E+00
 
     Adding external electric field

     Computed dipole along edir(3) : 
        Dipole                0.0328 Ry au,          0.0835 Debye
        Dipole field          0.0000 Ry au, 
 
        Potential amp.       -0.0029 Ry
        Total length         52.0867 bohr
 

     total cpu time spent up to now is     9567.4 secs

     total energy              =   -3281.65459438 Ry
     estimated scf accuracy    <       0.06953626 Ry

     iteration # 54     ecut=    62.47 Ry     beta= 0.15
     Davidson diagonalization with overlap
     c_bands:  1 eigenvalues not converged
     ethr =  1.98E-05,  avg # of iterations =  3.5

     negative rho (up, down):  1.702E+00 0.000E+00
 
     Adding external electric field

     Computed dipole along edir(3) : 
        Dipole                0.0163 Ry au,          0.0413 Debye
        Dipole field          0.0000 Ry au, 
 
        Potential amp.       -0.0014 Ry
        Total length         52.0867 bohr
 

     total cpu time spent up to now is     9718.6 secs

     total energy              =   -3281.65421985 Ry
     estimated scf accuracy    <       0.07181576 Ry

     iteration # 55     ecut=    62.47 Ry     beta= 0.15
     Davidson diagonalization with overlap
     ethr =  1.98E-05,  avg # of iterations =  2.5

     negative rho (up, down):  1.702E+00 0.000E+00
 
     Adding external electric field

     Computed dipole along edir(3) : 
        Dipole                0.0249 Ry au,          0.0632 Debye
        Dipole field          0.0000 Ry au, 
 
        Potential amp.       -0.0022 Ry
        Total length         52.0867 bohr
 

     total cpu time spent up to now is     9866.7 secs

     total energy              =   -3281.65453351 Ry
     estimated scf accuracy    <       0.06342230 Ry

     iteration # 56     ecut=    62.47 Ry     beta= 0.15
     Davidson diagonalization with overlap
     ethr =  1.80E-05,  avg # of iterations =  1.2

     negative rho (up, down):  1.706E+00 0.000E+00
 
     Adding external electric field

     Computed dipole along edir(3) : 
        Dipole               -0.0914 Ry au,         -0.2322 Debye
        Dipole field         -0.0001 Ry au, 
 
        Potential amp.        0.0079 Ry
        Total length         52.0867 bohr
 

     total cpu time spent up to now is    10007.7 secs

     total energy              =   -3281.65338946 Ry
     estimated scf accuracy    <       0.06282816 Ry

     iteration # 57     ecut=    62.47 Ry     beta= 0.15
     Davidson diagonalization with overlap
     c_bands:  2 eigenvalues not converged
     c_bands:  5 eigenvalues not converged
     c_bands:  3 eigenvalues not converged
     c_bands:  4 eigenvalues not converged
     c_bands:  3 eigenvalues not converged
     c_bands:  1 eigenvalues not converged
     ethr =  1.78E-05,  avg # of iterations =  8.1

     negative rho (up, down):  1.715E+00 0.000E+00
 
     Adding external electric field

     Computed dipole along edir(3) : 
        Dipole               -0.0122 Ry au,         -0.0311 Debye
        Dipole field         -0.0000 Ry au, 
 
        Potential amp.        0.0011 Ry
        Total length         52.0867 bohr
 

     total cpu time spent up to now is    10184.1 secs

     total energy              =   -3281.65396884 Ry
     estimated scf accuracy    <       0.04323637 Ry

     iteration # 58     ecut=    62.47 Ry     beta= 0.15
     Davidson diagonalization with overlap
     c_bands:  5 eigenvalues not converged
     c_bands:  2 eigenvalues not converged
     c_bands:  2 eigenvalues not converged
     c_bands:  1 eigenvalues not converged
     c_bands:  1 eigenvalues not converged
     c_bands:  1 eigenvalues not converged
     c_bands:  3 eigenvalues not converged
     c_bands:  2 eigenvalues not converged
     c_bands:  4 eigenvalues not converged
     c_bands:  2 eigenvalues not converged
     c_bands:  2 eigenvalues not converged
     c_bands:  5 eigenvalues not converged
     ethr =  1.23E-05,  avg # of iterations = 14.3

     negative rho (up, down):  1.722E+00 0.000E+00
 
     Adding external electric field

     Computed dipole along edir(3) : 
        Dipole                0.0152 Ry au,          0.0387 Debye
        Dipole field          0.0000 Ry au, 
 
        Potential amp.       -0.0013 Ry
        Total length         52.0867 bohr
 

     total cpu time spent up to now is    10388.1 secs

     total energy              =   -3281.65389927 Ry
     estimated scf accuracy    <       0.05825462 Ry

     iteration # 59     ecut=    62.47 Ry     beta= 0.15
     Davidson diagonalization with overlap
     c_bands:  1 eigenvalues not converged
     ethr =  1.23E-05,  avg # of iterations =  4.0

     negative rho (up, down):  1.711E+00 0.000E+00
 
     Adding external electric field

     Computed dipole along edir(3) : 
        Dipole               -0.0297 Ry au,         -0.0754 Debye
        Dipole field         -0.0000 Ry au, 
 
        Potential amp.        0.0026 Ry
        Total length         52.0867 bohr
 

     total cpu time spent up to now is    10544.1 secs

     total energy              =   -3281.65308624 Ry
     estimated scf accuracy    <       0.06746452 Ry

     iteration # 60     ecut=    62.47 Ry     beta= 0.15
     Davidson diagonalization with overlap
     c_bands:  1 eigenvalues not converged
     c_bands:  4 eigenvalues not converged
     c_bands:  5 eigenvalues not converged
     c_bands:  4 eigenvalues not converged
     c_bands:  4 eigenvalues not converged
     c_bands:  4 eigenvalues not converged
     ethr =  1.23E-05,  avg # of iterations =  7.0

     negative rho (up, down):  1.712E+00 0.000E+00
 
     Adding external electric field

     Computed dipole along edir(3) : 
        Dipole               -0.0374 Ry au,         -0.0949 Debye
        Dipole field         -0.0000 Ry au, 
 
        Potential amp.        0.0032 Ry
        Total length         52.0867 bohr
 

     total cpu time spent up to now is    10716.5 secs

     total energy              =   -3281.65349792 Ry
     estimated scf accuracy    <       0.04611436 Ry

     iteration # 61     ecut=    62.47 Ry     beta= 0.15
     Davidson diagonalization with overlap
     c_bands:  2 eigenvalues not converged
     c_bands:  1 eigenvalues not converged
     ethr =  1.23E-05,  avg # of iterations =  3.3

     negative rho (up, down):  1.714E+00 0.000E+00
 
     Adding external electric field

     Computed dipole along edir(3) : 
        Dipole               -0.0424 Ry au,         -0.1078 Debye
        Dipole field         -0.0000 Ry au, 
 
        Potential amp.        0.0037 Ry
        Total length         52.0867 bohr
 

     total cpu time spent up to now is    10866.9 secs

     total energy              =   -3281.65360610 Ry
     estimated scf accuracy    <       0.03997052 Ry

     iteration # 62     ecut=    62.47 Ry     beta= 0.15
     Davidson diagonalization with overlap
     ethr =  1.14E-05,  avg # of iterations =  1.7

     negative rho (up, down):  1.712E+00 0.000E+00
 
     Adding external electric field

     Computed dipole along edir(3) : 
        Dipole               -0.0215 Ry au,         -0.0546 Debye
        Dipole field         -0.0000 Ry au, 
 
        Potential amp.        0.0019 Ry
        Total length         52.0867 bohr
 

     total cpu time spent up to now is    11009.7 secs

     total energy              =   -3281.65331401 Ry
     estimated scf accuracy    <       0.03848007 Ry

     iteration # 63     ecut=    62.47 Ry     beta= 0.15
     Davidson diagonalization with overlap
     c_bands:  1 eigenvalues not converged
     c_bands:  3 eigenvalues not converged
     c_bands:  5 eigenvalues not converged
     c_bands:  3 eigenvalues not converged
     ethr =  1.09E-05,  avg # of iterations =  4.3

     negative rho (up, down):  1.689E+00 0.000E+00
 
     Adding external electric field

     Computed dipole along edir(3) : 
        Dipole               -0.1235 Ry au,         -0.3139 Debye
        Dipole field         -0.0001 Ry au, 
 
        Potential amp.        0.0107 Ry
        Total length         52.0867 bohr
 

     total cpu time spent up to now is    11164.2 secs

     total energy              =   -3281.64763123 Ry
     estimated scf accuracy    <       0.03586922 Ry

     iteration # 64     ecut=    62.47 Ry     beta= 0.15
     Davidson diagonalization with overlap
     c_bands:  2 eigenvalues not converged
     c_bands:  2 eigenvalues not converged
     c_bands:  1 eigenvalues not converged
     c_bands:  2 eigenvalues not converged
     c_bands:  3 eigenvalues not converged
     c_bands:  1 eigenvalues not converged
     c_bands:  2 eigenvalues not converged
     c_bands:  2 eigenvalues not converged
     c_bands:  1 eigenvalues not converged
     c_bands:  3 eigenvalues not converged
     c_bands:  1 eigenvalues not converged
     c_bands:  1 eigenvalues not converged
     c_bands:  4 eigenvalues not converged
     c_bands:  4 eigenvalues not converged
     c_bands:  2 eigenvalues not converged
     c_bands:  4 eigenvalues not converged
     c_bands:  4 eigenvalues not converged
     c_bands:  4 eigenvalues not converged
     c_bands:  2 eigenvalues not converged
     c_bands:  4 eigenvalues not converged
     c_bands:  4 eigenvalues not converged
     c_bands:  4 eigenvalues not converged
     c_bands:  2 eigenvalues not converged
     c_bands:  2 eigenvalues not converged
     ethr =  1.02E-05,  avg # of iterations = 20.0

     negative rho (up, down):  1.688E+00 0.000E+00
 
     Adding external electric field

     Computed dipole along edir(3) : 
        Dipole               -0.1158 Ry au,         -0.2944 Debye
        Dipole field         -0.0001 Ry au, 
 
        Potential amp.        0.0101 Ry
        Total length         52.0867 bohr
 

     total cpu time spent up to now is    11417.5 secs

     total energy              =   -3281.65020645 Ry
     estimated scf accuracy    <       0.00790889 Ry

     iteration # 65     ecut=    62.47 Ry     beta= 0.15
     Davidson diagonalization with overlap
     c_bands:  2 eigenvalues not converged
     c_bands:  3 eigenvalues not converged
     c_bands:  1 eigenvalues not converged
     c_bands:  1 eigenvalues not converged
     c_bands:  2 eigenvalues not converged
     c_bands:  1 eigenvalues not converged
     c_bands:  1 eigenvalues not converged
     c_bands:  1 eigenvalues not converged
     c_bands:  2 eigenvalues not converged
     c_bands:  2 eigenvalues not converged
     c_bands:  1 eigenvalues not converged
     c_bands:  1 eigenvalues not converged
     c_bands:  2 eigenvalues not converged
     c_bands:  4 eigenvalues not converged
     c_bands:  1 eigenvalues not converged
     c_bands:  2 eigenvalues not converged
     c_bands:  2 eigenvalues not converged
     c_bands:  3 eigenvalues not converged
     c_bands:  3 eigenvalues not converged
     c_bands:  2 eigenvalues not converged
     c_bands:  1 eigenvalues not converged
     c_bands:  5 eigenvalues not converged
     c_bands:  3 eigenvalues not converged
     ethr =  2.25E-06,  avg # of iterations = 19.7

     negative rho (up, down):  1.688E+00 0.000E+00
 
     Adding external electric field

     Computed dipole along edir(3) : 
        Dipole               -0.0925 Ry au,         -0.2351 Debye
        Dipole field         -0.0001 Ry au, 
 
        Potential amp.        0.0080 Ry
        Total length         52.0867 bohr
 

     total cpu time spent up to now is    11658.7 secs

     total energy              =   -3281.65016379 Ry
     estimated scf accuracy    <       0.00731288 Ry

     iteration # 66     ecut=    62.47 Ry     beta= 0.15
     Davidson diagonalization with overlap
     c_bands:  2 eigenvalues not converged
     c_bands:  2 eigenvalues not converged
     c_bands:  3 eigenvalues not converged
     c_bands:  1 eigenvalues not converged
     ethr =  2.08E-06,  avg # of iterations =  9.5

     negative rho (up, down):  1.690E+00 0.000E+00
 
     Adding external electric field

     Computed dipole along edir(3) : 
        Dipole               -0.1358 Ry au,         -0.3451 Debye
        Dipole field         -0.0001 Ry au, 
 
        Potential amp.        0.0118 Ry
        Total length         52.0867 bohr
 

     total cpu time spent up to now is    11837.1 secs

     total energy              =   -3281.65032299 Ry
     estimated scf accuracy    <       0.00465073 Ry

     iteration # 67     ecut=    62.47 Ry     beta= 0.15
     Davidson diagonalization with overlap
     ethr =  1.32E-06,  avg # of iterations =  4.7

     negative rho (up, down):  1.691E+00 0.000E+00
 
     Adding external electric field

     Computed dipole along edir(3) : 
        Dipole               -0.1303 Ry au,         -0.3312 Debye
        Dipole field         -0.0001 Ry au, 
 
        Potential amp.        0.0113 Ry
        Total length         52.0867 bohr
 

     total cpu time spent up to now is    11999.3 secs

     total energy              =   -3281.65031157 Ry
     estimated scf accuracy    <       0.00530107 Ry

     iteration # 68     ecut=    62.47 Ry     beta= 0.15
     Davidson diagonalization with overlap
     c_bands:  2 eigenvalues not converged
     c_bands:  2 eigenvalues not converged
     c_bands:  1 eigenvalues not converged
     ethr =  1.32E-06,  avg # of iterations =  9.8

     negative rho (up, down):  1.696E+00 0.000E+00
 
     Adding external electric field

     Computed dipole along edir(3) : 
        Dipole               -0.0492 Ry au,         -0.1249 Debye
        Dipole field         -0.0000 Ry au, 
 
        Potential amp.        0.0043 Ry
        Total length         52.0867 bohr
 

     total cpu time spent up to now is    12182.2 secs

     total energy              =   -3281.64991136 Ry
     estimated scf accuracy    <       0.00523780 Ry

     iteration # 69     ecut=    62.47 Ry     beta= 0.15
     Davidson diagonalization with overlap
     c_bands:  1 eigenvalues not converged
     c_bands:  1 eigenvalues not converged
     ethr =  1.32E-06,  avg # of iterations =  6.1

     negative rho (up, down):  1.701E+00 0.000E+00
 
     Adding external electric field

     Computed dipole along edir(3) : 
        Dipole               -0.0421 Ry au,         -0.1071 Debye
        Dipole field         -0.0000 Ry au, 
 
        Potential amp.        0.0037 Ry
        Total length         52.0867 bohr
 

     total cpu time spent up to now is    12350.0 secs

     total energy              =   -3281.64984282 Ry
     estimated scf accuracy    <       0.00291648 Ry

     iteration # 70     ecut=    62.47 Ry     beta= 0.15
     Davidson diagonalization with overlap
     c_bands:  2 eigenvalues not converged
     ethr =  8.29E-07,  avg # of iterations =  6.2

     negative rho (up, down):  1.699E+00 0.000E+00
 
     Adding external electric field

     Computed dipole along edir(3) : 
        Dipole               -0.0424 Ry au,         -0.1079 Debye
        Dipole field         -0.0000 Ry au, 
 
        Potential amp.        0.0037 Ry
        Total length         52.0867 bohr
 

     total cpu time spent up to now is    12523.8 secs

     total energy              =   -3281.64989619 Ry
     estimated scf accuracy    <       0.00137178 Ry

     iteration # 71     ecut=    62.47 Ry     beta= 0.15
     Davidson diagonalization with overlap
     c_bands:  2 eigenvalues not converged
     ethr =  3.90E-07,  avg # of iterations =  7.0

     negative rho (up, down):  1.703E+00 0.000E+00
 
     Adding external electric field

     Computed dipole along edir(3) : 
        Dipole               -0.0216 Ry au,         -0.0549 Debye
        Dipole field         -0.0000 Ry au, 
 
        Potential amp.        0.0019 Ry
        Total length         52.0867 bohr
 

     total cpu time spent up to now is    12743.2 secs

     total energy              =   -3281.64990238 Ry
     estimated scf accuracy    <       0.00407568 Ry

     iteration # 72     ecut=    62.47 Ry     beta= 0.15
     Davidson diagonalization with overlap
     c_bands:  1 eigenvalues not converged
     ethr =  3.90E-07,  avg # of iterations =  5.6

     negative rho (up, down):  1.702E+00 0.000E+00
 
     Adding external electric field

     Computed dipole along edir(3) : 
        Dipole               -0.0114 Ry au,         -0.0289 Debye
        Dipole field         -0.0000 Ry au, 
 
        Potential amp.        0.0010 Ry
        Total length         52.0867 bohr
 

     total cpu time spent up to now is    12928.4 secs

     total energy              =   -3281.64999380 Ry
     estimated scf accuracy    <       0.00096367 Ry

     iteration # 73     ecut=    62.47 Ry     beta= 0.15
     Davidson diagonalization with overlap
     ethr =  2.74E-07,  avg # of iterations =  4.3

     negative rho (up, down):  1.690E+00 0.000E+00
 
     Adding external electric field

     Computed dipole along edir(3) : 
        Dipole               -0.0164 Ry au,         -0.0417 Debye
        Dipole field         -0.0000 Ry au, 
 
        Potential amp.        0.0014 Ry
        Total length         52.0867 bohr
 

     total cpu time spent up to now is    13096.5 secs

     total energy              =   -3281.64980709 Ry
     estimated scf accuracy    <       0.00029105 Ry

     iteration # 74     ecut=    62.47 Ry     beta= 0.15
     Davidson diagonalization with overlap
     ethr =  8.27E-08,  avg # of iterations =  6.8

     negative rho (up, down):  1.691E+00 0.000E+00
 
     Adding external electric field

     Computed dipole along edir(3) : 
        Dipole               -0.0168 Ry au,         -0.0427 Debye
        Dipole field         -0.0000 Ry au, 
 
        Potential amp.        0.0015 Ry
        Total length         52.0867 bohr
 

     total cpu time spent up to now is    13316.6 secs

     total energy              =   -3281.64982068 Ry
     estimated scf accuracy    <       0.00069554 Ry

     iteration # 75     ecut=    62.47 Ry     beta= 0.15
     Davidson diagonalization with overlap
     ethr =  8.27E-08,  avg # of iterations =  5.0

     negative rho (up, down):  1.691E+00 0.000E+00
 
     Adding external electric field

     Computed dipole along edir(3) : 
        Dipole               -0.0094 Ry au,         -0.0240 Debye
        Dipole field         -0.0000 Ry au, 
 
        Potential amp.        0.0008 Ry
        Total length         52.0867 bohr
 

     total cpu time spent up to now is    13506.1 secs

     total energy              =   -3281.64988309 Ry
     estimated scf accuracy    <       0.00007664 Ry

     iteration # 76     ecut=    62.47 Ry     beta= 0.15
     Davidson diagonalization with overlap
     ethr =  2.18E-08,  avg # of iterations =  4.1

     negative rho (up, down):  1.689E+00 0.000E+00
 
     Adding external electric field

     Computed dipole along edir(3) : 
        Dipole               -0.0168 Ry au,         -0.0428 Debye
        Dipole field         -0.0000 Ry au, 
 
        Potential amp.        0.0015 Ry
        Total length         52.0867 bohr
 

     total cpu time spent up to now is    13674.3 secs

     total energy              =   -3281.64986491 Ry
     estimated scf accuracy    <       0.00006022 Ry

     iteration # 77     ecut=    62.47 Ry     beta= 0.15
     Davidson diagonalization with overlap
     ethr =  1.71E-08,  avg # of iterations =  5.4

     negative rho (up, down):  1.687E+00 0.000E+00
 
     Adding external electric field

     Computed dipole along edir(3) : 
        Dipole               -0.0048 Ry au,         -0.0121 Debye
        Dipole field         -0.0000 Ry au, 
 
        Potential amp.        0.0004 Ry
        Total length         52.0867 bohr
 

     total cpu time spent up to now is    13875.5 secs

     total energy              =   -3281.64980465 Ry
     estimated scf accuracy    <       0.00024880 Ry

     iteration # 78     ecut=    62.47 Ry     beta= 0.15
     Davidson diagonalization with overlap
     ethr =  1.71E-08,  avg # of iterations =  6.1

     negative rho (up, down):  1.686E+00 0.000E+00
 
     Adding external electric field

     Computed dipole along edir(3) : 
        Dipole               -0.0027 Ry au,         -0.0069 Debye
        Dipole field         -0.0000 Ry au, 
 
        Potential amp.        0.0002 Ry
        Total length         52.0867 bohr
 

     total cpu time spent up to now is    14081.5 secs

     total energy              =   -3281.64981934 Ry
     estimated scf accuracy    <       0.00002847 Ry

     iteration # 79     ecut=    62.47 Ry     beta= 0.15
     Davidson diagonalization with overlap
     ethr =  8.09E-09,  avg # of iterations =  2.2

     negative rho (up, down):  1.685E+00 0.000E+00
 
     Adding external electric field

     Computed dipole along edir(3) : 
        Dipole                0.0015 Ry au,          0.0037 Debye
        Dipole field          0.0000 Ry au, 
 
        Potential amp.       -0.0001 Ry
        Total length         52.0867 bohr
 

     total cpu time spent up to now is    14237.9 secs

     total energy              =   -3281.64981525 Ry
     estimated scf accuracy    <       0.00001080 Ry

     iteration # 80     ecut=    62.47 Ry     beta= 0.15
     Davidson diagonalization with overlap
     ethr =  3.07E-09,  avg # of iterations =  6.9

     negative rho (up, down):  1.685E+00 0.000E+00
 
     Adding external electric field

     Computed dipole along edir(3) : 
        Dipole               -0.0046 Ry au,         -0.0117 Debye
        Dipole field         -0.0000 Ry au, 
 
        Potential amp.        0.0004 Ry
        Total length         52.0867 bohr
 

     total cpu time spent up to now is    14453.5 secs

     total energy              =   -3281.64980422 Ry
     estimated scf accuracy    <       0.00002336 Ry

     iteration # 81     ecut=    62.47 Ry     beta= 0.15
     Davidson diagonalization with overlap
     ethr =  3.07E-09,  avg # of iterations =  7.3

     negative rho (up, down):  1.685E+00 0.000E+00
 
     Adding external electric field

     Computed dipole along edir(3) : 
        Dipole               -0.0042 Ry au,         -0.0108 Debye
        Dipole field         -0.0000 Ry au, 
 
        Potential amp.        0.0004 Ry
        Total length         52.0867 bohr
 

     total cpu time spent up to now is    14683.3 secs

     total energy              =   -3281.64980579 Ry
     estimated scf accuracy    <       0.00003440 Ry

     iteration # 82     ecut=    62.47 Ry     beta= 0.15
     Davidson diagonalization with overlap
     ethr =  3.07E-09,  avg # of iterations =  5.0

     negative rho (up, down):  1.685E+00 0.000E+00
 
     Adding external electric field

     Computed dipole along edir(3) : 
        Dipole               -0.0029 Ry au,         -0.0073 Debye
        Dipole field         -0.0000 Ry au, 
 
        Potential amp.        0.0003 Ry
        Total length         52.0867 bohr
 

     total cpu time spent up to now is    14874.1 secs

     total energy              =   -3281.64980785 Ry
     estimated scf accuracy    <       0.00000469 Ry

     iteration # 83     ecut=    62.47 Ry     beta= 0.15
     Davidson diagonalization with overlap
     ethr =  1.33E-09,  avg # of iterations =  1.6

     negative rho (up, down):  1.684E+00 0.000E+00
 
     Adding external electric field

     Computed dipole along edir(3) : 
        Dipole               -0.0006 Ry au,         -0.0016 Debye
        Dipole field         -0.0000 Ry au, 
 
        Potential amp.        0.0001 Ry
        Total length         52.0867 bohr
 

     total cpu time spent up to now is    15022.5 secs

     total energy              =   -3281.64980655 Ry
     estimated scf accuracy    <       0.00000481 Ry

     iteration # 84     ecut=    62.47 Ry     beta= 0.15
     Davidson diagonalization with overlap
     ethr =  1.33E-09,  avg # of iterations =  5.7

     negative rho (up, down):  1.684E+00 0.000E+00
 
     Adding external electric field

     Computed dipole along edir(3) : 
        Dipole               -0.0018 Ry au,         -0.0047 Debye
        Dipole field         -0.0000 Ry au, 
 
        Potential amp.        0.0002 Ry
        Total length         52.0867 bohr
 

     total cpu time spent up to now is    15231.5 secs

     total energy              =   -3281.64980757 Ry
     estimated scf accuracy    <       0.00000559 Ry

     iteration # 85     ecut=    62.47 Ry     beta= 0.15
     Davidson diagonalization with overlap
     ethr =  1.33E-09,  avg # of iterations =  2.1

     negative rho (up, down):  1.684E+00 0.000E+00
 
     Adding external electric field

     Computed dipole along edir(3) : 
        Dipole               -0.0011 Ry au,         -0.0029 Debye
        Dipole field         -0.0000 Ry au, 
 
        Potential amp.        0.0001 Ry
        Total length         52.0867 bohr
 

     total cpu time spent up to now is    15388.9 secs

     total energy              =   -3281.64980762 Ry
     estimated scf accuracy    <       0.00000325 Ry

     iteration # 86     ecut=    62.47 Ry     beta= 0.15
     Davidson diagonalization with overlap
     ethr =  9.23E-10,  avg # of iterations =  4.0

     negative rho (up, down):  1.684E+00 0.000E+00
 
     Adding external electric field

     Computed dipole along edir(3) : 
        Dipole               -0.0019 Ry au,         -0.0049 Debye
        Dipole field         -0.0000 Ry au, 
 
        Potential amp.        0.0002 Ry
        Total length         52.0867 bohr
 

     total cpu time spent up to now is    15553.9 secs

     total energy              =   -3281.64980782 Ry
     estimated scf accuracy    <       0.00000094 Ry

     iteration # 87     ecut=    62.47 Ry     beta= 0.15
     Davidson diagonalization with overlap
     ethr =  2.66E-10,  avg # of iterations =  5.0

     negative rho (up, down):  1.684E+00 0.000E+00
 
     Adding external electric field

     Computed dipole along edir(3) : 
        Dipole               -0.0094 Ry au,         -0.0238 Debye
        Dipole field         -0.0000 Ry au, 
 
        Potential amp.        0.0008 Ry
        Total length         52.0867 bohr
 

     total cpu time spent up to now is    15728.5 secs

     End of self-consistent calculation

          k = 0.0000 0.0000 0.0000 (125713 PWs)   bands (ev):

   -28.7111 -28.7109 -28.6839 -28.6838 -28.6587 -28.6585 -28.6342 -28.6341
   -28.1319 -28.0654 -28.0400 -28.0322 -28.0012 -27.9950 -27.9852 -27.9624
   -27.9549 -27.9518 -27.9477 -27.9399 -27.9398 -27.9345 -27.9281 -27.9265
   -27.9247 -27.9193 -27.9124 -27.9117 -27.9093 -27.9092 -27.8996 -27.8996
   -12.6617 -12.6593 -12.5917 -12.5881 -12.4863 -12.4805 -12.4789 -12.4750
   -12.4737 -12.4675 -12.4589 -12.4529 -12.3808 -12.3804 -12.3797 -12.3791
   -12.3731 -12.3562 -12.3554 -12.3468 -12.3425 -12.3350 -12.2937 -12.2178
   -12.1790 -12.1535 -12.1141 -12.1123 -12.1019 -12.0916 -12.0915 -12.0834
   -12.0752 -12.0408 -12.0355 -12.0250 -12.0146 -11.9338 -11.9232 -11.9105
   -11.8898 -11.8841 -11.8761 -11.8742 -11.8712 -11.8537 -11.7968 -11.7933
   -11.7912 -11.7849 -11.7209 -11.6941 -11.6831 -11.6767 -11.6519 -11.6497
   -11.6143 -11.6129 -11.6077 -11.5940 -11.5867 -11.5628 -11.5390 -11.5285
   -11.5027 -11.4810 -11.4754 -11.4651 -11.4454 -11.4435 -11.4273 -11.4154
   -11.4046 -11.3938 -11.3842 -11.3736 -11.3718 -11.3540 -11.3470 -11.3357
   -11.3354 -11.3263 -11.3254 -11.3246 -11.3191 -11.3065 -11.2771 -11.2734
   -11.2542 -11.2456 -11.2442 -11.2199 -11.2169 -11.1489 -11.1436 -11.0872
     1.7512   2.2624   2.9329   3.0568   3.0888   3.0945   3.1817   3.2224
     3.4437   3.4701   3.5298   3.5364   3.6636   3.6747   3.7047   3.7734
     3.7978   3.8051   3.8920   3.9433   3.9600   3.9875   4.0040   4.0171
     4.0708   4.1039   4.1899   4.1988   4.2021   4.2391   4.2409   4.3603
     4.3636   4.3674   4.4199   4.4620   4.5031   4.5298   4.5324   4.5462
     4.5591   4.5870   4.6347   4.6475   4.6539   4.7364   4.7642   4.7976
     4.8409   4.8726   4.8856   4.8974   4.9161   4.9564   5.0205   5.0780
     5.0947   5.0947   5.1343   5.1363   5.1660   5.2053   5.2169   5.2631
     5.2762   5.2915   5.3372   5.3533   5.4131   5.4186   5.4590   5.4657
     5.4672   5.4945   5.5308   5.5478   5.5842   5.6063

          k = 0.0000-0.2289 0.0000 (125775 PWs)   bands (ev):

   -28.7104 -28.7103 -28.6840 -28.6839 -28.6586 -28.6584 -28.6344 -28.6343
   -28.1265 -28.0616 -28.0362 -28.0285 -27.9997 -27.9925 -27.9829 -27.9719
   -27.9541 -27.9515 -27.9510 -27.9429 -27.9414 -27.9369 -27.9325 -27.9305
   -27.9268 -27.9216 -27.9143 -27.9112 -27.9086 -27.9053 -27.8981 -27.8977
   -12.6551 -12.6529 -12.5846 -12.5826 -12.5126 -12.5050 -12.4874 -12.4868
   -12.4566 -12.4514 -12.4477 -12.4451 -12.3962 -12.3945 -12.3696 -12.3600
   -12.3578 -12.3578 -12.3565 -12.3549 -12.3491 -12.3178 -12.2719 -12.2294
   -12.1792 -12.1750 -12.1602 -12.1177 -12.1131 -12.1000 -12.0876 -12.0806
   -12.0487 -12.0304 -12.0091 -12.0058 -12.0037 -11.9492 -11.9292 -11.9264
   -11.9157 -11.9017 -11.8965 -11.8839 -11.8301 -11.8275 -11.8176 -11.7821
   -11.7556 -11.7548 -11.7525 -11.7252 -11.6769 -11.6718 -11.6668 -11.6352
   -11.6031 -11.6011 -11.5890 -11.5660 -11.5654 -11.5596 -11.5329 -11.5064
   -11.5053 -11.4808 -11.4744 -11.4700 -11.4544 -11.4323 -11.4267 -11.4239
   -11.4023 -11.3991 -11.3726 -11.3721 -11.3648 -11.3627 -11.3477 -11.3438
   -11.3343 -11.3340 -11.3227 -11.3201 -11.3201 -11.3113 -11.2960 -11.2764
   -11.2687 -11.2638 -11.2578 -11.2464 -11.1851 -11.1674 -11.1568 -11.0949
     1.8492   2.3429   2.9701   3.1171   3.1706   3.1784   3.2123   3.3097
     3.4797   3.4992   3.5194   3.5417   3.5588   3.5843   3.5849   3.6305
     3.6765   3.7639   3.8317   3.8416   3.9016   3.9329   4.0302   4.0408
     4.0624   4.0720   4.1106   4.1799   4.1853   4.2723   4.2947   4.3157
     4.3216   4.3336   4.4195   4.4886   4.4910   4.5340   4.5387   4.5761
     4.5889   4.6133   4.6331   4.6371   4.6420   4.6543   4.7253   4.8152
     4.8605   4.8949   4.9007   4.9167   4.9384   4.9408   4.9869   4.9912
     5.0451   5.0564   5.0804   5.1099   5.1590   5.1995   5.2156   5.2627
     5.2874   5.3310   5.3957   5.3974   5.3991   5.4205   5.4440   5.4918
     5.4919   5.5050   5.5146   5.5752   5.5957   5.6184

          k = 0.0000-0.4578 0.0000 (125583 PWs)   bands (ev):

   -28.7088 -28.7086 -28.6841 -28.6840 -28.6582 -28.6580 -28.6349 -28.6348
   -28.1110 -28.0504 -28.0254 -28.0179 -27.9952 -27.9952 -27.9848 -27.9768
   -27.9620 -27.9597 -27.9517 -27.9508 -27.9488 -27.9447 -27.9355 -27.9332
   -27.9285 -27.9267 -27.9216 -27.9098 -27.9067 -27.9028 -27.8953 -27.8946
   -12.6394 -12.6379 -12.5735 -12.5730 -12.5404 -12.5308 -12.5061 -12.5020
   -12.4511 -12.4483 -12.4392 -12.4315 -12.4087 -12.4079 -12.3684 -12.3679
   -12.3592 -12.3583 -12.3353 -12.3341 -12.3212 -12.2695 -12.2537 -12.2351
   -12.2348 -12.1978 -12.1895 -12.1139 -12.0967 -12.0962 -12.0918 -12.0403
   -12.0194 -12.0186 -12.0165 -12.0137 -12.0083 -11.9738 -11.9638 -11.9534
   -11.9415 -11.8982 -11.8828 -11.8658 -11.8366 -11.8226 -11.8215 -11.7849
   -11.7595 -11.7544 -11.7120 -11.6994 -11.6588 -11.6568 -11.6499 -11.6458
   -11.5878 -11.5718 -11.5582 -11.5495 -11.5409 -11.5352 -11.5137 -11.5099
   -11.4781 -11.4754 -11.4645 -11.4557 -11.4524 -11.4322 -11.4299 -11.4247
   -11.4168 -11.4131 -11.3924 -11.3780 -11.3779 -11.3604 -11.3580 -11.3423
   -11.3387 -11.3382 -11.3308 -11.3242 -11.3197 -11.3177 -11.3143 -11.2945
   -11.2920 -11.2873 -11.2656 -11.2531 -11.2181 -11.1827 -11.1775 -11.1166
     2.1289   2.5767   3.0701   3.2871   3.2893   3.2896   3.3009   3.3225
     3.3875   3.3984   3.4014   3.5326   3.5400   3.5437   3.5883   3.6243
     3.6315   3.6360   3.6784   3.6952   3.8153   3.8916   3.9123   3.9472
     4.0920   4.1140   4.1194   4.1349   4.1372   4.1498   4.2298   4.3012
     4.3084   4.3222   4.3311   4.4162   4.4186   4.4693   4.4912   4.5327
     4.5655   4.5690   4.5888   4.5987   4.6567   4.7182   4.7463   4.7707
     4.7715   4.8161   4.8380   4.8889   4.9270   4.9304   4.9425   5.0299
     5.0671   5.1037   5.1080   5.1374   5.1500   5.1937   5.2214   5.2831
     5.2889   5.2922   5.3086   5.3219   5.3805   5.3918   5.4516   5.4555
     5.4729   5.5090   5.5182   5.5310   5.5658   5.6211

          k = 0.0000-0.6867 0.0000 (125523 PWs)   bands (ev):

   -28.7070 -28.7069 -28.6843 -28.6842 -28.6579 -28.6577 -28.6354 -28.6353
   -28.0871 -28.0345 -28.0233 -28.0092 -28.0022 -27.9888 -27.9846 -27.9746
   -27.9725 -27.9710 -27.9664 -27.9535 -27.9477 -27.9461 -27.9460 -27.9371
   -27.9321 -27.9314 -27.9217 -27.9105 -27.9040 -27.9022 -27.8946 -27.8931
   -12.6248 -12.6237 -12.5726 -12.5712 -12.5549 -12.5470 -12.5209 -12.5162
   -12.4555 -12.4552 -12.4278 -12.4213 -12.4111 -12.4097 -12.3770 -12.3736
   -12.3580 -12.3545 -12.3309 -12.3262 -12.2832 -12.2670 -12.2497 -12.2485
   -12.2473 -12.1639 -12.1593 -12.0970 -12.0879 -12.0867 -12.0843 -12.0520
[...]
     4.0995   4.1506   4.2145   4.2448   4.2923   4.3061   4.3783   4.4056
     4.4135   4.4879   4.4947   4.5468   4.5734   4.5962   4.7178   4.7982
     4.8089   4.8124   4.8566   4.9148   4.9798   5.0091   5.0150   5.0604
     5.0885   5.1124   5.2285   5.2404   5.2524   5.2703   5.2919   5.3485
     5.3706   5.3739   5.3779   5.4202   5.4358   5.4564   5.4793   5.5017
     5.5401   5.5724   5.5889   5.5898   5.6254   5.6478

          k = 0.0000 0.4578-0.3333 (125664 PWs)   bands (ev):

   -28.7043 -28.7042 -28.6929 -28.6928 -28.6498 -28.6496 -28.6391 -28.6389
   -28.0992 -28.0667 -28.0412 -28.0159 -27.9893 -27.9891 -27.9766 -27.9736
   -27.9728 -27.9582 -27.9546 -27.9469 -27.9455 -27.9415 -27.9401 -27.9263
   -27.9257 -27.9182 -27.9157 -27.9114 -27.9113 -27.9087 -27.9014 -27.8993
   -12.6157 -12.6152 -12.5752 -12.5748 -12.5349 -12.5287 -12.5085 -12.5019
   -12.4602 -12.4591 -12.4450 -12.4431 -12.4065 -12.4056 -12.3999 -12.3982
   -12.3428 -12.3379 -12.3089 -12.3058 -12.2805 -12.2522 -12.2319 -12.2237
   -12.2223 -12.1963 -12.1741 -12.1591 -12.1514 -12.1441 -12.1352 -12.1286
   -12.1033 -12.0702 -12.0561 -12.0391 -12.0247 -11.9999 -11.9299 -11.9237
   -11.9114 -11.8819 -11.8513 -11.8435 -11.7987 -11.7669 -11.7610 -11.7399
   -11.7111 -11.6946 -11.6928 -11.6815 -11.6420 -11.6306 -11.6267 -11.6087
   -11.5955 -11.5886 -11.5809 -11.5664 -11.5607 -11.5406 -11.5403 -11.5365
   -11.5063 -11.4912 -11.4867 -11.4733 -11.4602 -11.4479 -11.4475 -11.4278
   -11.4260 -11.4237 -11.4092 -11.3983 -11.3896 -11.3690 -11.3541 -11.3390
   -11.3230 -11.3223 -11.3188 -11.3108 -11.3073 -11.3047 -11.2955 -11.2898
   -11.2839 -11.2670 -11.2388 -11.2367 -11.2336 -11.2076 -11.1893 -11.1573
     2.3135   2.7274   2.8085   3.1213   3.1604   3.3279   3.3309   3.3875
     3.4976   3.4980   3.5220   3.5767   3.5807   3.5928   3.6175   3.6575
     3.7067   3.7281   3.7512   3.7638   3.7672   3.8538   3.8669   3.9039
     3.9302   3.9408   3.9624   3.9970   4.0056   4.0448   4.0499   4.1532
     4.1563   4.2184   4.2288   4.2601   4.2958   4.3550   4.3723   4.4562
     4.4634   4.4873   4.5031   4.5685   4.6238   4.6858   4.7110   4.7910
     4.8594   4.8696   4.9142   4.9431   5.0295   5.0577   5.0922   5.1387
     5.1545   5.1568   5.2049   5.2381   5.3001   5.3061   5.3660   5.3751
     5.4037   5.4048   5.4613   5.4740   5.4818   5.5396   5.5600   5.5661
     5.5980   5.6367   5.6417   5.6629   5.6663   5.6916

          k = 0.0000 0.2289-0.3333 (125629 PWs)   bands (ev):

   -28.7056 -28.7055 -28.6935 -28.6934 -28.6496 -28.6494 -28.6386 -28.6385
   -28.1141 -28.0799 -28.0518 -28.0251 -27.9935 -27.9844 -27.9763 -27.9678
   -27.9589 -27.9504 -27.9484 -27.9457 -27.9400 -27.9360 -27.9319 -27.9275
   -27.9217 -27.9204 -27.9146 -27.9112 -27.9109 -27.9091 -27.9027 -27.9022
   -12.6261 -12.6256 -12.5853 -12.5840 -12.5086 -12.5027 -12.4887 -12.4823
   -12.4522 -12.4500 -12.4470 -12.4463 -12.4139 -12.4102 -12.3987 -12.3975
   -12.3586 -12.3537 -12.3438 -12.3387 -12.3091 -12.2778 -12.2536 -12.1974
   -12.1939 -12.1882 -12.1663 -12.1592 -12.1571 -12.1471 -12.1371 -12.1051
   -12.0811 -12.0578 -12.0360 -12.0230 -12.0172 -11.9768 -11.9704 -11.9351
   -11.9144 -11.8990 -11.8829 -11.8365 -11.7953 -11.7885 -11.7725 -11.7693
   -11.7630 -11.7116 -11.6743 -11.6724 -11.6682 -11.6681 -11.6267 -11.6244
   -11.6116 -11.5913 -11.5867 -11.5796 -11.5661 -11.5447 -11.5355 -11.5184
   -11.5114 -11.4890 -11.4613 -11.4520 -11.4463 -11.4445 -11.4349 -11.4229
   -11.4210 -11.4036 -11.3853 -11.3837 -11.3678 -11.3670 -11.3603 -11.3417
   -11.3376 -11.3337 -11.3334 -11.3255 -11.3175 -11.3174 -11.3029 -11.2695
   -11.2586 -11.2557 -11.2166 -11.2157 -11.2133 -11.1942 -11.1680 -11.1493
     2.0515   2.5177   2.5829   2.9873   3.0871   3.2568   3.3508   3.3683
     3.3914   3.4080   3.5642   3.5892   3.6034   3.6668   3.6863   3.7261
     3.7414   3.7592   3.7889   3.7999   3.8043   3.8625   3.9053   3.9498
     4.0176   4.0199   4.0792   4.1271   4.1289   4.1728   4.1787   4.1892
     4.2205   4.3037   4.3200   4.3518   4.3643   4.4043   4.4421   4.4834
     4.5331   4.5518   4.5641   4.6236   4.6588   4.6822   4.8032   4.8467
     4.8527   4.8594   4.9690   4.9814   5.0013   5.0561   5.0816   5.1495
     5.1526   5.1972   5.2057   5.2657   5.3020   5.3465   5.3538   5.3664
     5.3879   5.4163   5.4218   5.4879   5.4896   5.5332   5.5391   5.5552
     5.5780   5.5871   5.6148   5.6397   5.6550   5.6828

          k = 0.0000 0.0000 0.5000 (125670 PWs)   bands (ev):

   -28.7006 -28.7006 -28.7005 -28.7004 -28.6434 -28.6434 -28.6432 -28.6432
   -28.1042 -28.1042 -28.0437 -28.0437 -27.9875 -27.9875 -27.9669 -27.9669
   -27.9557 -27.9557 -27.9431 -27.9431 -27.9327 -27.9327 -27.9266 -27.9266
   -27.9190 -27.9190 -27.9154 -27.9154 -27.9086 -27.9086 -27.9077 -27.9076
   -12.6053 -12.6053 -12.6046 -12.6046 -12.4806 -12.4806 -12.4736 -12.4736
   -12.4542 -12.4542 -12.4526 -12.4526 -12.4195 -12.4195 -12.4156 -12.4156
   -12.3591 -12.3591 -12.3562 -12.3562 -12.2657 -12.2657 -12.2525 -12.2525
   -12.1895 -12.1895 -12.1777 -12.1777 -12.1593 -12.1593 -12.1118 -12.1118
   -12.0572 -12.0572 -12.0253 -12.0253 -11.9911 -11.9911 -11.9658 -11.9658
   -11.8988 -11.8988 -11.8895 -11.8895 -11.7905 -11.7905 -11.7766 -11.7766
   -11.7354 -11.7354 -11.6872 -11.6872 -11.6727 -11.6727 -11.6303 -11.6303
   -11.5866 -11.5866 -11.5705 -11.5705 -11.5617 -11.5617 -11.5289 -11.5289
   -11.4720 -11.4719 -11.4541 -11.4541 -11.4455 -11.4455 -11.4247 -11.4247
   -11.3998 -11.3998 -11.3855 -11.3855 -11.3770 -11.3770 -11.3636 -11.3636
   -11.3465 -11.3464 -11.3181 -11.3181 -11.3114 -11.3114 -11.2798 -11.2797
   -11.2426 -11.2426 -11.2349 -11.2349 -11.1805 -11.1805 -11.1722 -11.1722
     2.1996   2.1996   2.6601   2.6601   3.2137   3.2137   3.3034   3.3034
     3.3656   3.3656   3.6087   3.6087   3.6571   3.6571   3.7149   3.7149
     3.7627   3.7627   3.7990   3.7990   3.8605   3.8605   3.8984   3.8984
     4.0558   4.0558   4.0814   4.0815   4.1577   4.1577   4.2441   4.2441
     4.3234   4.3234   4.3858   4.3858   4.4649   4.4650   4.5350   4.5350
     4.5581   4.5581   4.6825   4.6825   4.7296   4.7296   4.7839   4.7839
     4.8011   4.8011   4.9330   4.9330   5.0893   5.0893   5.1068   5.1068
     5.1551   5.1551   5.2991   5.2991   5.3104   5.3104   5.3560   5.3560
     5.4241   5.4241   5.4450   5.4450   5.5354   5.5354   5.5719   5.5720
     5.5904   5.5904   5.6396   5.6399   5.6768   5.6775

          k = 0.0000-0.2289 0.5000 (125572 PWs)   bands (ev):

   -28.7002 -28.7002 -28.7000 -28.7000 -28.6435 -28.6435 -28.6433 -28.6433
   -28.0993 -28.0993 -28.0402 -28.0402 -27.9861 -27.9861 -27.9646 -27.9646
   -27.9632 -27.9632 -27.9450 -27.9450 -27.9345 -27.9344 -27.9316 -27.9316
   -27.9179 -27.9179 -27.9165 -27.9165 -27.9076 -27.9076 -27.9057 -27.9057
   -12.6013 -12.6013 -12.6009 -12.6009 -12.4973 -12.4973 -12.4912 -12.4912
   -12.4512 -12.4512 -12.4496 -12.4496 -12.4118 -12.4118 -12.4088 -12.4088
   -12.3474 -12.3474 -12.3456 -12.3456 -12.2485 -12.2485 -12.2456 -12.2456
   -12.1906 -12.1906 -12.1843 -12.1843 -12.1833 -12.1833 -12.1283 -12.1283
   -12.0672 -12.0672 -12.0339 -12.0339 -12.0030 -12.0030 -11.9522 -11.9522
   -11.8954 -11.8954 -11.8632 -11.8632 -11.7852 -11.7852 -11.7559 -11.7559
   -11.7344 -11.7344 -11.6650 -11.6650 -11.6533 -11.6533 -11.6319 -11.6319
   -11.5994 -11.5994 -11.5727 -11.5727 -11.5702 -11.5702 -11.5230 -11.5230
   -11.4886 -11.4885 -11.4791 -11.4791 -11.4259 -11.4259 -11.4230 -11.4230
   -11.4045 -11.4045 -11.4043 -11.4043 -11.3546 -11.3545 -11.3519 -11.3518
   -11.3514 -11.3514 -11.3314 -11.3314 -11.3099 -11.3099 -11.2918 -11.2918
   -11.2401 -11.2401 -11.2379 -11.2379 -11.1880 -11.1880 -11.1794 -11.1794
     2.2871   2.2871   2.7239   2.7239   3.2241   3.2241   3.3926   3.3926
     3.3952   3.3952   3.6204   3.6204   3.6416   3.6416   3.6809   3.6809
     3.7404   3.7404   3.7913   3.7913   3.8220   3.8220   3.9152   3.9152
     4.0048   4.0048   4.0388   4.0388   4.0873   4.0873   4.1614   4.1615
     4.2739   4.2739   4.3008   4.3008   4.4395   4.4395   4.4444   4.4444
     4.4913   4.4913   4.5515   4.5515   4.6028   4.6028   4.8533   4.8533
     4.9404   4.9404   4.9891   4.9891   5.0934   5.0934   5.1228   5.1228
     5.1693   5.1693   5.3038   5.3038   5.3421   5.3421   5.3485   5.3485
     5.4324   5.4324   5.4555   5.4555   5.5541   5.5541   5.5748   5.5748
     5.6102   5.6103   5.7015   5.7021   5.7114   5.7119

          k = 0.0000-0.4578 0.5000 (125648 PWs)   bands (ev):

   -28.6992 -28.6992 -28.6990 -28.6990 -28.6439 -28.6439 -28.6437 -28.6437
   -28.0851 -28.0851 -28.0302 -28.0302 -27.9822 -27.9822 -27.9822 -27.9822
   -27.9600 -27.9600 -27.9508 -27.9507 -27.9486 -27.9486 -27.9286 -27.9286
   -27.9181 -27.9181 -27.9167 -27.9166 -27.9077 -27.9076 -27.9045 -27.9045
   -12.5931 -12.5931 -12.5928 -12.5928 -12.5204 -12.5204 -12.5147 -12.5147
   -12.4549 -12.4549 -12.4541 -12.4541 -12.4060 -12.4060 -12.4052 -12.4052
   -12.3183 -12.3183 -12.3178 -12.3178 -12.2289 -12.2289 -12.2179 -12.2179
   -12.2090 -12.2090 -12.2050 -12.2050 -12.1668 -12.1667 -12.1508 -12.1508
   -12.0963 -12.0963 -12.0508 -12.0508 -12.0252 -12.0252 -11.9144 -11.9144
   -11.8931 -11.8931 -11.8418 -11.8418 -11.7686 -11.7686 -11.7253 -11.7253
   -11.7101 -11.7101 -11.6590 -11.6589 -11.6258 -11.6258 -11.6145 -11.6145
   -11.6010 -11.6010 -11.5795 -11.5795 -11.5594 -11.5594 -11.5285 -11.5285
   -11.5158 -11.5158 -11.4929 -11.4929 -11.4700 -11.4700 -11.4328 -11.4328
   -11.4251 -11.4251 -11.4098 -11.4098 -11.3700 -11.3700 -11.3459 -11.3459
   -11.3180 -11.3180 -11.3157 -11.3157 -11.3056 -11.3056 -11.3003 -11.3003
   -11.2580 -11.2580 -11.2393 -11.2393 -11.2076 -11.2076 -11.1954 -11.1954
     2.5309   2.5309   2.9037   2.9037   3.2565   3.2565   3.4470   3.4470
     3.4918   3.4918   3.5917   3.5917   3.6445   3.6445   3.6635   3.6635
     3.6930   3.6930   3.7547   3.7547   3.8023   3.8023   3.8110   3.8110
     3.9066   3.9066   3.9540   3.9540   4.0391   4.0391   4.0497   4.0497
     4.0897   4.0897   4.2526   4.2526   4.2777   4.2777   4.3611   4.3611
     4.4126   4.4127   4.5129   4.5129   4.6896   4.6896   4.7512   4.7512
     4.8404   4.8404   4.9259   4.9260   5.0909   5.0909   5.1849   5.1849
     5.2782   5.2782   5.2850   5.2850   5.3414   5.3414   5.3761   5.3761
     5.4524   5.4524   5.4911   5.4912   5.4994   5.4994   5.5411   5.5411
     5.6535   5.6539   5.6715   5.6721   5.7085   5.7247

          k = 0.0000-0.6867 0.5000 (125596 PWs)   bands (ev):

   -28.6981 -28.6981 -28.6980 -28.6980 -28.6442 -28.6442 -28.6440 -28.6440
   -28.0635 -28.0635 -28.0164 -28.0163 -28.0062 -28.0062 -27.9771 -27.9771
   -27.9723 -27.9723 -27.9589 -27.9589 -27.9453 -27.9453 -27.9277 -27.9277
   -27.9188 -27.9188 -27.9155 -27.9155 -27.9090 -27.9090 -27.9064 -27.9064
   -12.5874 -12.5873 -12.5868 -12.5868 -12.5338 -12.5338 -12.5305 -12.5305
   -12.4611 -12.4611 -12.4606 -12.4606 -12.4137 -12.4137 -12.4127 -12.4127
   -12.2889 -12.2889 -12.2887 -12.2887 -12.2279 -12.2278 -12.2271 -12.2271
   -12.2016 -12.2016 -12.1938 -12.1938 -12.1784 -12.1784 -12.1350 -12.1350
   -12.0700 -12.0700 -12.0663 -12.0663 -12.0222 -12.0222 -11.8950 -11.8950
   -11.8765 -11.8765 -11.8557 -11.8557 -11.7667 -11.7667 -11.7061 -11.7061
   -11.6876 -11.6876 -11.6526 -11.6526 -11.6504 -11.6504 -11.6234 -11.6233
   -11.5970 -11.5969 -11.5806 -11.5806 -11.5520 -11.5520 -11.5404 -11.5404
   -11.5200 -11.5200 -11.5009 -11.5009 -11.4768 -11.4768 -11.4583 -11.4583
   -11.4210 -11.4210 -11.4199 -11.4199 -11.3599 -11.3599 -11.3492 -11.3492
   -11.3295 -11.3295 -11.3084 -11.3084 -11.2911 -11.2911 -11.2754 -11.2754
   -11.2660 -11.2660 -11.2646 -11.2646 -11.2232 -11.2232 -11.2142 -11.2142
     2.8718   2.8718   3.1603   3.1603   3.2870   3.2870   3.3705   3.3705
     3.4109   3.4109   3.4799   3.4799   3.5435   3.5435   3.6655   3.6655
     3.7030   3.7031   3.7315   3.7315   3.8002   3.8003   3.8199   3.8199
     3.8558   3.8558   3.9495   3.9495   3.9633   3.9633   3.9752   3.9752
     4.1041   4.1041   4.1493   4.1493   4.3259   4.3259   4.3825   4.3825
     4.4755   4.4755   4.4854   4.4854   4.5671   4.5671   4.6610   4.6610
     4.8662   4.8662   4.9123   4.9123   5.0285   5.0285   5.0533   5.0533
     5.1596   5.1596   5.1890   5.1890   5.3548   5.3548   5.3729   5.3729
     5.4160   5.4160   5.4749   5.4749   5.4805   5.4806   5.5100   5.5102
     5.5642   5.5644   5.6072   5.6073   5.6690   5.6717

          k = 0.0000 0.9156 0.5000 (125624 PWs)   bands (ev):

   -28.6977 -28.6977 -28.6976 -28.6976 -28.6444 -28.6444 -28.6442 -28.6442
   -28.0370 -28.0370 -28.0370 -28.0370 -27.9943 -27.9943 -27.9942 -27.9942
   -27.9677 -27.9676 -27.9676 -27.9676 -27.9351 -27.9351 -27.9351 -27.9351
   -27.9159 -27.9158 -27.9158 -27.9158 -27.9092 -27.9091 -27.9091 -27.9091
   -12.5857 -12.5857 -12.5856 -12.5856 -12.5363 -12.5363 -12.5362 -12.5362
   -12.4637 -12.4637 -12.4636 -12.4636 -12.4186 -12.4186 -12.4185 -12.4185
   -12.2770 -12.2770 -12.2768 -12.2768 -12.2314 -12.2314 -12.2314 -12.2314
   -12.1954 -12.1954 -12.1954 -12.1954 -12.1567 -12.1567 -12.1567 -12.1567
   -12.0697 -12.0697 -12.0696 -12.0696 -11.9311 -11.9311 -11.9311 -11.9311
   -11.8607 -11.8607 -11.8607 -11.8607 -11.7577 -11.7577 -11.7577 -11.7577
   -11.6799 -11.6799 -11.6799 -11.6799 -11.6296 -11.6296 -11.6296 -11.6296
   -11.5895 -11.5895 -11.5895 -11.5894 -11.5573 -11.5573 -11.5573 -11.5573
   -11.5119 -11.5119 -11.5118 -11.5118 -11.4547 -11.4546 -11.4546 -11.4546
   -11.4034 -11.4034 -11.4033 -11.4033 -11.3651 -11.3651 -11.3651 -11.3651
   -11.3250 -11.3250 -11.3250 -11.3250 -11.2940 -11.2940 -11.2940 -11.2940
   -11.2458 -11.2458 -11.2457 -11.2457 -11.2342 -11.2342 -11.2342 -11.2342
     3.2042   3.2042   3.2042   3.2042   3.2966   3.2967   3.2967   3.2967
     3.4300   3.4300   3.4300   3.4300   3.4951   3.4951   3.4951   3.4951
     3.6779   3.6779   3.6779   3.6779   3.7702   3.7702   3.7702   3.7702
     3.9183   3.9183   3.9183   3.9183   4.0503   4.0503   4.0503   4.0503
     4.1473   4.1473   4.1473   4.1473   4.3436   4.3436   4.3436   4.3436
     4.4453   4.4453   4.4453   4.4453   4.6598   4.6598   4.6598   4.6598
     4.8403   4.8403   4.8403   4.8403   5.0806   5.0806   5.0806   5.0806
     5.1582   5.1582   5.1583   5.1583   5.2326   5.2326   5.2326   5.2326
     5.3439   5.3439   5.3439   5.3439   5.4519   5.4519   5.4519   5.4521
     5.5822   5.5823   5.5838   5.5903   5.6104   5.6106

     the Fermi energy is     4.7840 ev

!    total energy              =   -3281.64980796 Ry
     estimated scf accuracy    <       0.00000057 Ry
     smearing contrib. (-TS)   =      -0.07732344 Ry
     internal energy E=F+TS    =   -3281.57248452 Ry

     The total energy is F=E-TS. E is the sum of the following terms:
     one-electron contribution =  -10805.59983723 Ry
     hartree contribution      =    5465.79075364 Ry
     xc contribution           =   -1573.80292988 Ry
     ewald contribution        =    3632.03952888 Ry
     electric field correction =       0.00000007 Ry

     convergence has been achieved in  87 iterations

     negative rho (up, down):  1.684E+00 0.000E+00

     Forces acting on atoms (cartesian axes, Ry/au):

     atom    1 type  1   force =    -0.00911118   -0.00000007   -0.00000136
     atom    2 type  1   force =     0.00730160   -0.00000096    0.00000057
     atom    3 type  1   force =    -0.00052769    0.00000013    0.00000064
     atom    4 type  1   force =     0.00273040    0.00000037    0.00000044
     atom    5 type  1   force =    -0.00272558    0.00000064   -0.00000077
     atom    6 type  1   force =     0.00050108    0.00000077    0.00000005
     atom    7 type  1   force =    -0.00729392   -0.00000074    0.00000016
     atom    8 type  1   force =     0.00912325    0.00000042    0.00000026
     atom    9 type  1   force =    -0.00906332    0.00000115    0.00000210
     atom   10 type  1   force =     0.00727311    0.00000104   -0.00000026
     atom   11 type  1   force =    -0.00052660    0.00000010   -0.00000031
     atom   12 type  1   force =     0.00273331   -0.00000074   -0.00000013
     atom   13 type  1   force =    -0.00274420   -0.00000102   -0.00000001
     atom   14 type  1   force =     0.00051271   -0.00000038    0.00000048
     atom   15 type  1   force =    -0.00729625    0.00000001    0.00000041
     atom   16 type  1   force =     0.00912332    0.00000065   -0.00000008
     atom   17 type  1   force =    -0.00054563    0.00305868   -0.00001990
     atom   18 type  1   force =     0.00072417   -0.00104709    0.00000125
     atom   19 type  1   force =    -0.00623205   -0.00253842    0.00000080
     atom   20 type  1   force =     0.00383461   -0.00870590   -0.00000112
     atom   21 type  1   force =    -0.00382357   -0.00878036   -0.00002028
     atom   22 type  1   force =     0.00623803   -0.00255786    0.00000457
     atom   23 type  1   force =    -0.00074987   -0.00104392   -0.00000051
     atom   24 type  1   force =     0.00054713    0.00300237    0.00000033
     atom   25 type  1   force =    -0.00054499   -0.00305841    0.00002070
     atom   26 type  1   force =     0.00072472    0.00104633   -0.00000182
     atom   27 type  1   force =    -0.00623065    0.00253745   -0.00000160
     atom   28 type  1   force =     0.00383339    0.00870581    0.00000020
     atom   29 type  1   force =    -0.00382093    0.00877854    0.00002098
     atom   30 type  1   force =     0.00623843    0.00255938   -0.00000567
     atom   31 type  1   force =    -0.00075110    0.00104420    0.00000005
     atom   32 type  1   force =     0.00054829   -0.00300215   -0.00000019

     Total force =     0.034140     Total SCF correction =     0.002492

     Writing all to output data dir ./calc.save/
 
     init_run     :    156.71s CPU    161.80s WALL (       1 calls)
     electrons    :  15126.44s CPU  15566.75s WALL (       1 calls)
     forces       :     44.95s CPU     46.72s WALL (       1 calls)

     Called by init_run:
     wfcinit      :    150.58s CPU    153.99s WALL (       1 calls)
     potinit      :      0.90s CPU      0.94s WALL (       1 calls)
     hinit0       :      1.37s CPU      1.48s WALL (       1 calls)

     Called by electrons:
     c_bands      :  12998.94s CPU  13188.98s WALL (      87 calls)
     sum_band     :   1754.51s CPU   1882.64s WALL (      87 calls)
     v_of_rho     :     31.87s CPU     32.77s WALL (      88 calls)
     newd         :    199.16s CPU    319.96s WALL (      88 calls)
     mix_rho      :    141.58s CPU    142.97s WALL (      87 calls)

     Called by c_bands:
     init_us_2    :    189.58s CPU    190.51s WALL (    4576 calls)
     init_us_2:cp :    189.55s CPU    190.49s WALL (    4576 calls)
     cegterg      :  11301.16s CPU  11480.20s WALL (    2285 calls)

     Called by *egterg:
     cdiaghg      :    814.90s CPU    815.60s WALL (   15387 calls)
     h_psi        :   6078.42s CPU   6144.53s WALL (   15413 calls)
     s_psi        :   1784.58s CPU   1785.64s WALL (   15413 calls)
     g_psi        :     22.48s CPU     22.53s WALL (   13102 calls)

     Called by h_psi:
     h_psi:calbec :   1787.67s CPU   1793.85s WALL (   15413 calls)
     vloc_psi     :   2482.13s CPU   2496.93s WALL (   15413 calls)
     add_vuspsi   :   1785.91s CPU   1787.58s WALL (   15413 calls)

     General routines
     calbec       :   2502.60s CPU   2510.48s WALL (   17779 calls)
     fft          :     26.29s CPU     26.92s WALL (    1153 calls)
     ffts         :     60.57s CPU     61.08s WALL (   23217 calls)
     fftw         :   2594.52s CPU   2610.29s WALL ( 2703038 calls)
     interpolate  :      2.14s CPU      2.15s WALL (      88 calls)
 
     Parallel routines
 
     PWSCF        :      4h15m CPU      4h23m WALL

 
   This run was terminated on:   6:29:13   8Aug2023            

=------------------------------------------------------------------------------=
   JOB DONE.
=------------------------------------------------------------------------------=
