  python dir          : /home/p.schindler/.conda/envs/dft3_8/lib/python3.8/site-packages/espresso
  espresso dir        : /home/p.schindler/q-e_7-1/bin/
  pseudo dir          : /home/p.schindler/q-e_7-1/PSPs/Vanderbilt_USPP_PBE/
  ase-espresso py git : 4b1d7e3-git



     Program PWSCF v.7.1 starts on  8Aug2023 at  2: 6:57 

     This program is part of the open-source Quantum ESPRESSO suite
     for quantum simulation of materials; please cite
         "P. Giannozzi et al., J. Phys.:Condens. Matter 21 395502 (2009);
         "P. Giannozzi et al., J. Phys.:Condens. Matter 29 465901 (2017);
         "P. Giannozzi et al., J. Chem. Phys. 152 154105 (2020);
          URL http://www.quantum-espresso.org", 
     in publications or presentations arising from this work. More details at
     http://www.quantum-espresso.org/quote

     Parallel version (MPI), running on    20 processors

     MPI processes distributed on     1 nodes
     73519 MiB available memory on the printing compute node when the environment starts
 
     Reading input from pw.inp

     Current dimensions of program PWSCF are:
     Max number of different atomic species (ntypx) = 10
     Max number of k-points (npk) =  40000
     Max angular momentum in pseudopotentials (lmaxx) =  4
     Presently no symmetry can be used with electric field


     IMPORTANT: XC functional enforced from input :
     Exchange-correlation= PBE
                           (   1   4   3   4   0   0   0)
     Any further DFT definition will be discarded
     Please, verify this is what you really want

 
     R & G space division:  proc/nbgrp/npool/nimage =      20
     Subspace diagonalization in iterative solution of the eigenvalue problem:
     a serial algorithm will be used

 
     Parallelization info
     --------------------
     sticks:   dense  smooth     PW     G-vecs:    dense   smooth      PW
     Min         304     122     34                86333    21847    3244
     Max         305     124     35                86349    21857    3259
     Sum        6093    2443    685              1726797   437025   64955
 
     Using Slab Decomposition
 


     bravais-lattice index     =            0
     lattice parameter (alat)  =      10.8359  a.u.
     unit-cell volume          =    6550.6385 (a.u.)^3
     number of atoms/cell      =           45
     number of atomic types    =            2
     number of electrons       =       555.00
     number of Kohn-Sham states=          307
     kinetic-energy cutoff     =      62.4738  Ry
     charge density cutoff     =     624.7385  Ry
     scf convergence threshold =      7.3E-07
     mixing beta               =       0.1500
     number of iterations used =           10  local-TF  mixing
     Exchange-correlation= PBE
                           (   1   4   3   4   0   0   0)

     celldm(1)=  10.835942  celldm(2)=   0.000000  celldm(3)=   0.000000
     celldm(4)=   0.000000  celldm(5)=   0.000000  celldm(6)=   0.000000

     crystal axes: (cart. coord. in units of alat)
               a(1) = (   0.500000   0.866025   0.000000 )  
               a(2) = (  -0.500000   0.866025   0.587128 )  
               a(3) = (   3.037678  -1.753804   3.567009 )  

     reciprocal axes: (cart. coord. in units 2 pi/alat)
               b(1) = (  0.800000  0.692820 -0.340641 )  
               b(2) = ( -0.600000  0.346410  0.681283 )  
               b(3) = (  0.098760 -0.057019  0.168208 )  


     PseudoPot. # 1 for Fe read from file:
     /home/p.schindler/q-e_7-1/PSPs/Vanderbilt_USPP_PBE/Fe.UPF
     MD5 check sum: a130daea23fe5165f5d574ae7f82ed95
     Pseudo is Ultrasoft + core correction, Zval = 16.0
     Generated by new atomic code, or converted to UPF format
     Using radial grid of  861 points,  6 beta functions with: 
                l(1) =   0
                l(2) =   0
                l(3) =   1
                l(4) =   1
                l(5) =   2
                l(6) =   2
     Q(r) pseudized with  8 coefficients,  rinner =    1.000   1.000   1.000
                                                       1.000   1.000

     PseudoPot. # 2 for P  read from file:
     /home/p.schindler/q-e_7-1/PSPs/Vanderbilt_USPP_PBE/P.UPF
     MD5 check sum: eb82b2c351da08c5f5f8709277dc7ee5
     Pseudo is Ultrasoft + core correction, Zval =  5.0
     Generated by new atomic code, or converted to UPF format
     Using radial grid of  903 points,  6 beta functions with: 
                l(1) =   0
                l(2) =   0
                l(3) =   1
                l(4) =   1
                l(5) =   2
                l(6) =   2
     Q(r) pseudized with  8 coefficients,  rinner =    1.300   1.300   1.300
                                                       1.300   1.300

     atomic species   valence    mass     pseudopotential
        Fe1           16.00    55.84500     Fe( 1.00)
        P1             5.00    30.97376     P ( 1.00)

     No symmetry found



   Cartesian axes

     site n.     atom                  positions (alat units)
         1           Fe1 tau(   1) = (   1.0111670   0.8085047   1.7225572  )
         2           Fe1 tau(   2) = (   1.5111670  -0.0575207   1.7225572  )
         3           Fe1 tau(   3) = (   1.5111670  -0.0575207   2.3096847  )
         4           Fe1 tau(   4) = (   2.0111670  -0.9235461   2.3096847  )
         5           Fe1 tau(   5) = (   2.5111670  -0.0575207   2.8968123  )
         6           Fe1 tau(   6) = (   0.6284742   0.4521022   1.7225572  )
         7           Fe1 tau(   7) = (   1.1284742  -0.4139232   1.7225572  )
         8           Fe1 tau(   8) = (   1.6284742   0.4521022   2.3096847  )
         9           Fe1 tau(   9) = (   2.1284742  -0.4139232   2.3096847  )
        10           Fe1 tau(  10) = (   2.1284742  -0.4139232   2.8968123  )
        11           Fe1 tau(  11) = (   1.0111670   0.0956997   1.1354296  )
        12           Fe1 tau(  12) = (   1.0111670   0.0956997   1.7225572  )
        13           Fe1 tau(  13) = (   1.0111670   0.0956997   2.3096847  )
        14           Fe1 tau(  14) = (   2.0111670   0.0956997   2.3096847  )
        15           Fe1 tau(  15) = (   2.0111670   0.0956997   2.8968123  )
        16           Fe1 tau(  16) = (   2.3457155  -1.0568961   2.6032485  )
        17           Fe1 tau(  17) = (   0.8457155  -0.1908707   1.4289934  )
        18           Fe1 tau(  18) = (   1.3457155   0.6751547   2.0161210  )
        19           Fe1 tau(  19) = (   1.8457155  -0.1908707   2.0161210  )
        20           Fe1 tau(  20) = (   1.8457155  -0.1908707   2.6032485  )
        21           Fe1 tau(  21) = (   0.9593772   0.4521022   1.4289934  )
        22           Fe1 tau(  22) = (   0.9593772   0.4521022   2.0161210  )
        23           Fe1 tau(  23) = (   1.4593772  -0.4139232   2.0161210  )
        24           Fe1 tau(  24) = (   1.9593772   0.4521022   2.6032485  )
        25           Fe1 tau(  25) = (   2.4593772  -0.4139232   2.6032485  )
        26           Fe1 tau(  26) = (   0.8457155   1.0950750   1.4289934  )
        27           Fe1 tau(  27) = (   1.3457155   0.2290496   1.4289934  )
        28           Fe1 tau(  28) = (   1.3457155   0.2290496   2.0161210  )
        29           Fe1 tau(  29) = (   1.8457155  -0.6369758   2.0161210  )
        30           Fe1 tau(  30) = (   1.8457155  -0.6369758   2.6032485  )
        31           P1  tau(  31) = (   0.7169361   0.1634270   1.4289934  )
        32           P1  tau(  32) = (   1.2169361  -0.7025984   1.4289934  )
        33           P1  tau(  33) = (   1.7169361   0.1634270   2.0161210  )
        34           P1  tau(  34) = (   1.7169361   0.1634270   2.6032485  )
        35           P1  tau(  35) = (   2.2169361  -0.7025984   2.6032485  )
        36           P1  tau(  36) = (   0.7169361   0.7407773   1.4289934  )
        37           P1  tau(  37) = (   1.2169361  -0.1252481   1.4289934  )
        38           P1  tau(  38) = (   1.2169361  -0.1252481   2.0161210  )
        39           P1  tau(  39) = (   1.2169361  -0.1252481   2.6032485  )
        40           P1  tau(  40) = (   2.2169361  -0.1252481   2.6032485  )
        41           P1  tau(  41) = (   1.2169361   0.4521022   1.1354296  )
        42           P1  tau(  42) = (   1.2169361   0.4521022   1.7225572  )
        43           P1  tau(  43) = (   1.2169361   0.4521022   2.3096847  )
        44           P1  tau(  44) = (   1.7169361  -0.4139232   2.3096847  )
        45           P1  tau(  45) = (   1.7169361  -0.4139232   2.8968123  )

     number of k points=    52  Gaussian smearing, width (Ry)=  0.0147
                       cart. coord. in units 2pi/alat
        k(    1) = (   0.0000000   0.0000000   0.0000000), wk =   0.0200000
        k(    2) = (  -0.0600000   0.0346410   0.0681283), wk =   0.0400000
        k(    3) = (  -0.1200000   0.0692820   0.1362566), wk =   0.0400000
        k(    4) = (  -0.1800000   0.1039230   0.2043849), wk =   0.0400000
        k(    5) = (  -0.2400000   0.1385641   0.2725132), wk =   0.0400000
        k(    6) = (   0.3000000  -0.1732051  -0.3406415), wk =   0.0200000
        k(    7) = (   0.0800000   0.0692820  -0.0340641), wk =   0.0400000
        k(    8) = (   0.0200000   0.1039230   0.0340641), wk =   0.0400000
        k(    9) = (  -0.0400000   0.1385641   0.1021924), wk =   0.0400000
        k(   10) = (  -0.1000000   0.1732051   0.1703207), wk =   0.0400000
        k(   11) = (  -0.1600000   0.2078461   0.2384490), wk =   0.0400000
        k(   12) = (   0.3800000  -0.1039230  -0.3747056), wk =   0.0400000
        k(   13) = (   0.3200000  -0.0692820  -0.3065773), wk =   0.0400000
        k(   14) = (   0.2600000  -0.0346410  -0.2384490), wk =   0.0400000
        k(   15) = (   0.2000000   0.0000000  -0.1703207), wk =   0.0400000
        k(   16) = (   0.1400000   0.0346410  -0.1021924), wk =   0.0400000
        k(   17) = (   0.1600000   0.1385641  -0.0681283), wk =   0.0400000
        k(   18) = (   0.1000000   0.1732051   0.0000000), wk =   0.0400000
        k(   19) = (   0.0400000   0.2078461   0.0681283), wk =   0.0400000
        k(   20) = (  -0.0200000   0.2424871   0.1362566), wk =   0.0400000
        k(   21) = (  -0.0800000   0.2771281   0.2043849), wk =   0.0400000
        k(   22) = (   0.4600000  -0.0346410  -0.4087698), wk =   0.0400000
        k(   23) = (   0.4000000  -0.0000000  -0.3406415), wk =   0.0400000
        k(   24) = (   0.3400000   0.0346410  -0.2725132), wk =   0.0400000
        k(   25) = (   0.2800000   0.0692820  -0.2043849), wk =   0.0400000
        k(   26) = (   0.2200000   0.1039230  -0.1362566), wk =   0.0400000
        k(   27) = (   0.2400000   0.2078461  -0.1021924), wk =   0.0400000
        k(   28) = (   0.1800000   0.2424871  -0.0340641), wk =   0.0400000
        k(   29) = (   0.1200000   0.2771281   0.0340641), wk =   0.0400000
        k(   30) = (   0.0600000   0.3117691   0.1021924), wk =   0.0400000
        k(   31) = (  -0.0000000   0.3464102   0.1703207), wk =   0.0400000
        k(   32) = (   0.5400000   0.0346410  -0.4428339), wk =   0.0400000
        k(   33) = (   0.4800000   0.0692820  -0.3747056), wk =   0.0400000
        k(   34) = (   0.4200000   0.1039230  -0.3065773), wk =   0.0400000
        k(   35) = (   0.3600000   0.1385641  -0.2384490), wk =   0.0400000
        k(   36) = (   0.3000000   0.1732051  -0.1703207), wk =   0.0400000
        k(   37) = (   0.3200000   0.2771281  -0.1362566), wk =   0.0400000
        k(   38) = (   0.2600000   0.3117691  -0.0681283), wk =   0.0400000
        k(   39) = (   0.2000000   0.3464102   0.0000000), wk =   0.0400000
        k(   40) = (   0.1400000   0.3810512   0.0681283), wk =   0.0400000
        k(   41) = (   0.0800000   0.4156922   0.1362566), wk =   0.0400000
        k(   42) = (   0.6200000   0.1039230  -0.4768981), wk =   0.0400000
        k(   43) = (   0.5600000   0.1385641  -0.4087698), wk =   0.0400000
        k(   44) = (   0.5000000   0.1732051  -0.3406415), wk =   0.0400000
        k(   45) = (   0.4400000   0.2078461  -0.2725132), wk =   0.0400000
        k(   46) = (   0.3800000   0.2424871  -0.2043849), wk =   0.0400000
        k(   47) = (  -0.4000000  -0.3464102   0.1703207), wk =   0.0200000
        k(   48) = (  -0.4600000  -0.3117691   0.2384490), wk =   0.0400000
        k(   49) = (  -0.5200000  -0.2771281   0.3065773), wk =   0.0400000
        k(   50) = (  -0.5800000  -0.2424871   0.3747056), wk =   0.0400000
        k(   51) = (  -0.6400000  -0.2078461   0.4428339), wk =   0.0400000
        k(   52) = (  -0.1000000  -0.5196152  -0.1703207), wk =   0.0200000

     Dense  grid:  1726797 G-vectors     FFT dimensions: (  90, 100, 432)

     Smooth grid:   437025 G-vectors     FFT dimensions: (  60,  64, 288)

     Estimated max dynamical RAM per process >       1.11 GB

     Estimated total dynamical RAM >      22.16 GB

     Check: negative core charge=   -0.000028

     Initial potential from superposition of free atoms

     starting charge     524.9974, renormalised to     555.0000

     negative rho (up, down):  1.309E-03 0.000E+00
 
     Adding external electric field

     Computed dipole along edir(3) : 
        Dipole                5.6393 Ry au,         14.3336 Debye
        Dipole field          0.0108 Ry au, 
 
        Potential amp.       -1.1435 Ry
        Total length         52.8536 bohr
 
     Starting wfcs are  450 randomized atomic wfcs

     total cpu time spent up to now is      100.8 secs

     Self-consistent Calculation

     iteration #  1     ecut=    62.47 Ry     beta= 0.15
     Davidson diagonalization with overlap
     ethr =  1.00E-02,  avg # of iterations =  7.1

     negative rho (up, down):  1.919E-01 0.000E+00
 
     Adding external electric field

     Computed dipole along edir(3) : 
        Dipole               -6.4494 Ry au,        -16.3926 Debye
        Dipole field         -0.0124 Ry au, 
 
        Potential amp.        1.3078 Ry
        Total length         52.8536 bohr
 

     total cpu time spent up to now is      444.7 secs

     total energy              =   -7691.80440838 Ry
     estimated scf accuracy    <    8319.38720060 Ry

     iteration #  2     ecut=    62.47 Ry     beta= 0.15
     Davidson diagonalization with overlap
     ethr =  1.00E-02,  avg # of iterations =  9.4

     negative rho (up, down):  9.970E-02 0.000E+00
 
     Adding external electric field

     Computed dipole along edir(3) : 
        Dipole                0.1165 Ry au,          0.2961 Debye
        Dipole field          0.0002 Ry au, 
 
        Potential amp.       -0.0236 Ry
        Total length         52.8536 bohr
 

     total cpu time spent up to now is      941.0 secs

     total energy              =   -7729.15521557 Ry
     estimated scf accuracy    <    3206.17049705 Ry

     iteration #  3     ecut=    62.47 Ry     beta= 0.15
     Davidson diagonalization with overlap
     ethr =  1.00E-02,  avg # of iterations =  3.3

     negative rho (up, down):  1.146E-01 0.000E+00
 
     Adding external electric field

     Computed dipole along edir(3) : 
        Dipole                0.5409 Ry au,          1.3748 Debye
        Dipole field          0.0010 Ry au, 
 
        Potential amp.       -0.1097 Ry
        Total length         52.8536 bohr
 

     total cpu time spent up to now is     1157.1 secs

     total energy              =   -7743.36678063 Ry
     estimated scf accuracy    <     179.66963973 Ry

     iteration #  4     ecut=    62.47 Ry     beta= 0.15
     Davidson diagonalization with overlap
     ethr =  1.00E-02,  avg # of iterations =  2.0

     negative rho (up, down):  1.750E-01 0.000E+00
 
     Adding external electric field

     Computed dipole along edir(3) : 
        Dipole                1.7383 Ry au,          4.4184 Debye
        Dipole field          0.0033 Ry au, 
 
        Potential amp.       -0.3525 Ry
        Total length         52.8536 bohr
 

     total cpu time spent up to now is     1357.7 secs

     total energy              =   -7737.42152116 Ry
     estimated scf accuracy    <     116.65386744 Ry

     iteration #  5     ecut=    62.47 Ry     beta= 0.15
     Davidson diagonalization with overlap
     ethr =  1.00E-02,  avg # of iterations =  5.2

     negative rho (up, down):  1.687E-01 0.000E+00
 
     Adding external electric field

     Computed dipole along edir(3) : 
        Dipole                1.6637 Ry au,          4.2287 Debye
        Dipole field          0.0032 Ry au, 
 
        Potential amp.       -0.3374 Ry
        Total length         52.8536 bohr
 

     total cpu time spent up to now is     1639.5 secs

     total energy              =   -7746.22069278 Ry
     estimated scf accuracy    <     406.13718722 Ry

     iteration #  6     ecut=    62.47 Ry     beta= 0.15
     Davidson diagonalization with overlap
     ethr =  1.00E-02,  avg # of iterations =  1.6

     negative rho (up, down):  1.338E-01 0.000E+00
 
     Adding external electric field

     Computed dipole along edir(3) : 
        Dipole                1.0906 Ry au,          2.7721 Debye
        Dipole field          0.0021 Ry au, 
 
        Potential amp.       -0.2212 Ry
        Total length         52.8536 bohr
 

     total cpu time spent up to now is     1832.7 secs

     total energy              =   -7745.79145062 Ry
     estimated scf accuracy    <     438.75116378 Ry

     iteration #  7     ecut=    62.47 Ry     beta= 0.15
     Davidson diagonalization with overlap
     ethr =  1.00E-02,  avg # of iterations =  1.1

     negative rho (up, down):  1.153E-01 0.000E+00
 
     Adding external electric field

     Computed dipole along edir(3) : 
        Dipole                0.6435 Ry au,          1.6355 Debye
        Dipole field          0.0012 Ry au, 
 
        Potential amp.       -0.1305 Ry
        Total length         52.8536 bohr
 

     total cpu time spent up to now is     2013.7 secs

     total energy              =   -7745.05239320 Ry
     estimated scf accuracy    <     432.66787312 Ry

     iteration #  8     ecut=    62.47 Ry     beta= 0.15
     Davidson diagonalization with overlap
     ethr =  1.00E-02,  avg # of iterations =  1.0

     negative rho (up, down):  1.018E-01 0.000E+00
 
     Adding external electric field

     Computed dipole along edir(3) : 
        Dipole                0.2830 Ry au,          0.7193 Debye
        Dipole field          0.0005 Ry au, 
 
        Potential amp.       -0.0574 Ry
        Total length         52.8536 bohr
 

     total cpu time spent up to now is     2192.0 secs

     total energy              =   -7744.53070948 Ry
     estimated scf accuracy    <     320.43845934 Ry

     iteration #  9     ecut=    62.47 Ry     beta= 0.15
     Davidson diagonalization with overlap
     ethr =  1.00E-02,  avg # of iterations =  1.0

     negative rho (up, down):  7.796E-02 0.000E+00
 
     Adding external electric field

     Computed dipole along edir(3) : 
        Dipole               -0.4666 Ry au,         -1.1859 Debye
        Dipole field         -0.0009 Ry au, 
 
        Potential amp.        0.0946 Ry
        Total length         52.8536 bohr
 

     total cpu time spent up to now is     2369.1 secs

     total energy              =   -7743.22528557 Ry
     estimated scf accuracy    <     235.13986533 Ry

     iteration # 10     ecut=    62.47 Ry     beta= 0.15
     Davidson diagonalization with overlap
     ethr =  1.00E-02,  avg # of iterations =  1.0

     negative rho (up, down):  7.960E-02 0.000E+00
 
     Adding external electric field

     Computed dipole along edir(3) : 
        Dipole               -0.3642 Ry au,         -0.9258 Debye
        Dipole field         -0.0007 Ry au, 
 
        Potential amp.        0.0739 Ry
        Total length         52.8536 bohr
 

     total cpu time spent up to now is     2546.1 secs

     total energy              =   -7743.85208097 Ry
     estimated scf accuracy    <      16.42856189 Ry

     iteration # 11     ecut=    62.47 Ry     beta= 0.15
     Davidson diagonalization with overlap
     ethr =  2.96E-03,  avg # of iterations =  1.1

     negative rho (up, down):  8.266E-02 0.000E+00
 
     Adding external electric field

     Computed dipole along edir(3) : 
        Dipole                0.0209 Ry au,          0.0532 Debye
        Dipole field          0.0000 Ry au, 
 
        Potential amp.       -0.0042 Ry
        Total length         52.8536 bohr
 

     total cpu time spent up to now is     2726.1 secs

     total energy              =   -7743.79112505 Ry
     estimated scf accuracy    <      17.38379973 Ry

     iteration # 12     ecut=    62.47 Ry     beta= 0.15
     Davidson diagonalization with overlap
     ethr =  2.96E-03,  avg # of iterations =  1.3

     negative rho (up, down):  6.755E-02 0.000E+00
 
     Adding external electric field

     Computed dipole along edir(3) : 
        Dipole               -0.1533 Ry au,         -0.3897 Debye
        Dipole field         -0.0003 Ry au, 
 
        Potential amp.        0.0311 Ry
        Total length         52.8536 bohr
 

     total cpu time spent up to now is     2912.8 secs

     total energy              =   -7744.18553700 Ry
     estimated scf accuracy    <     204.93647016 Ry

     iteration # 13     ecut=    62.47 Ry     beta= 0.15
     Davidson diagonalization with overlap
     ethr =  2.96E-03,  avg # of iterations =  1.4

     negative rho (up, down):  3.422E-02 0.000E+00
 
     Adding external electric field

     Computed dipole along edir(3) : 
        Dipole               -1.1298 Ry au,         -2.8716 Debye
        Dipole field         -0.0022 Ry au, 
 
        Potential amp.        0.2291 Ry
        Total length         52.8536 bohr
 

     total cpu time spent up to now is     3099.4 secs

     total energy              =   -7742.40758943 Ry
     estimated scf accuracy    <     169.14446774 Ry

     iteration # 14     ecut=    62.47 Ry     beta= 0.15
     Davidson diagonalization with overlap
     ethr =  2.96E-03,  avg # of iterations =  1.5

     negative rho (up, down):  3.120E-02 0.000E+00
 
     Adding external electric field

     Computed dipole along edir(3) : 
        Dipole               -1.3081 Ry au,         -3.3249 Debye
        Dipole field         -0.0025 Ry au, 
 
        Potential amp.        0.2653 Ry
        Total length         52.8536 bohr
 

     total cpu time spent up to now is     3287.7 secs

     total energy              =   -7744.65961855 Ry
     estimated scf accuracy    <     228.50577172 Ry

     iteration # 15     ecut=    62.47 Ry     beta= 0.15
     Davidson diagonalization with overlap
     ethr =  2.96E-03,  avg # of iterations =  1.3

     negative rho (up, down):  3.909E-02 0.000E+00
 
     Adding external electric field

     Computed dipole along edir(3) : 
        Dipole               -1.1263 Ry au,         -2.8627 Debye
        Dipole field         -0.0022 Ry au, 
 
        Potential amp.        0.2284 Ry
        Total length         52.8536 bohr
 

     total cpu time spent up to now is     3471.5 secs

     total energy              =   -7744.32529967 Ry
     estimated scf accuracy    <     439.64672880 Ry

     iteration # 16     ecut=    62.47 Ry     beta= 0.15
     Davidson diagonalization with overlap
     ethr =  2.96E-03,  avg # of iterations =  1.0

     negative rho (up, down):  3.911E-02 0.000E+00
 
     Adding external electric field

     Computed dipole along edir(3) : 
        Dipole               -1.1398 Ry au,         -2.8971 Debye
        Dipole field         -0.0022 Ry au, 
 
        Potential amp.        0.2311 Ry
        Total length         52.8536 bohr
 

     total cpu time spent up to now is     3648.4 secs

     total energy              =   -7744.43949541 Ry
     estimated scf accuracy    <     290.73754651 Ry

     iteration # 17     ecut=    62.47 Ry     beta= 0.15
     Davidson diagonalization with overlap
     ethr =  2.96E-03,  avg # of iterations =  1.0

     negative rho (up, down):  4.167E-02 0.000E+00
 
     Adding external electric field

     Computed dipole along edir(3) : 
        Dipole               -0.9997 Ry au,         -2.5409 Debye
        Dipole field         -0.0019 Ry au, 
 
        Potential amp.        0.2027 Ry
        Total length         52.8536 bohr
 

     total cpu time spent up to now is     3824.1 secs

     total energy              =   -7743.98259939 Ry
     estimated scf accuracy    <     305.60610920 Ry

     iteration # 18     ecut=    62.47 Ry     beta= 0.15
     Davidson diagonalization with overlap
     ethr =  2.96E-03,  avg # of iterations =  1.0

     negative rho (up, down):  3.752E-02 0.000E+00
 
     Adding external electric field

     Computed dipole along edir(3) : 
        Dipole               -1.1293 Ry au,         -2.8704 Debye
        Dipole field         -0.0022 Ry au, 
 
        Potential amp.        0.2290 Ry
        Total length         52.8536 bohr
 

     total cpu time spent up to now is     4000.9 secs

     total energy              =   -7744.23842504 Ry
     estimated scf accuracy    <     148.07641946 Ry

     iteration # 19     ecut=    62.47 Ry     beta= 0.15
     Davidson diagonalization with overlap
     ethr =  2.96E-03,  avg # of iterations =  1.0

     negative rho (up, down):  4.162E-02 0.000E+00
 
     Adding external electric field

     Computed dipole along edir(3) : 
        Dipole               -0.8046 Ry au,         -2.0450 Debye
        Dipole field         -0.0015 Ry au, 
 
        Potential amp.        0.1632 Ry
        Total length         52.8536 bohr
 

     total cpu time spent up to now is     4178.1 secs

     total energy              =   -7743.42430323 Ry
     estimated scf accuracy    <     236.00506287 Ry

     iteration # 20     ecut=    62.47 Ry     beta= 0.15
     Davidson diagonalization with overlap
     ethr =  2.96E-03,  avg # of iterations =  1.0

     negative rho (up, down):  3.683E-02 0.000E+00
 
     Adding external electric field

     Computed dipole along edir(3) : 
        Dipole               -0.6371 Ry au,         -1.6193 Debye
        Dipole field         -0.0012 Ry au, 
 
        Potential amp.        0.1292 Ry
        Total length         52.8536 bohr
 

     total cpu time spent up to now is     4356.8 secs

     total energy              =   -7743.60719954 Ry
     estimated scf accuracy    <      13.82005674 Ry

     iteration # 21     ecut=    62.47 Ry     beta= 0.15
     Davidson diagonalization with overlap
     ethr =  2.49E-03,  avg # of iterations =  1.0

     negative rho (up, down):  1.892E-02 0.000E+00
 
     Adding external electric field

     Computed dipole along edir(3) : 
        Dipole               -0.7673 Ry au,         -1.9502 Debye
        Dipole field         -0.0015 Ry au, 
 
        Potential amp.        0.1556 Ry
        Total length         52.8536 bohr
 

     total cpu time spent up to now is     4535.9 secs

     total energy              =   -7743.63841379 Ry
     estimated scf accuracy    <       1.40453486 Ry

     iteration # 22     ecut=    62.47 Ry     beta= 0.15
     Davidson diagonalization with overlap
     ethr =  2.53E-04,  avg # of iterations =  9.2

     negative rho (up, down):  6.304E-03 0.000E+00
 
     Adding external electric field

     Computed dipole along edir(3) : 
        Dipole               -0.7944 Ry au,         -2.0193 Debye
        Dipole field         -0.0015 Ry au, 
 
        Potential amp.        0.1611 Ry
        Total length         52.8536 bohr
 

     total cpu time spent up to now is     4808.5 secs

     total energy              =   -7743.67100460 Ry
     estimated scf accuracy    <       9.20222779 Ry

     iteration # 23     ecut=    62.47 Ry     beta= 0.15
     Davidson diagonalization with overlap
     ethr =  2.53E-04,  avg # of iterations =  1.2

     negative rho (up, down):  3.723E-03 0.000E+00
 
     Adding external electric field

     Computed dipole along edir(3) : 
        Dipole               -0.7419 Ry au,         -1.8857 Debye
        Dipole field         -0.0014 Ry au, 
 
        Potential amp.        0.1504 Ry
        Total length         52.8536 bohr
 

     total cpu time spent up to now is     4990.9 secs

     total energy              =   -7743.64738068 Ry
     estimated scf accuracy    <      10.08826162 Ry

     iteration # 24     ecut=    62.47 Ry     beta= 0.15
     Davidson diagonalization with overlap
     ethr =  2.53E-04,  avg # of iterations =  1.5

     negative rho (up, down):  1.138E-03 0.000E+00
 
     Adding external electric field

     Computed dipole along edir(3) : 
        Dipole               -0.7153 Ry au,         -1.8182 Debye
        Dipole field         -0.0014 Ry au, 
 
        Potential amp.        0.1451 Ry
        Total length         52.8536 bohr
 

     total cpu time spent up to now is     5176.4 secs

     total energy              =   -7743.65468761 Ry
     estimated scf accuracy    <       1.43724495 Ry

     iteration # 25     ecut=    62.47 Ry     beta= 0.15
     Davidson diagonalization with overlap
     ethr =  2.53E-04,  avg # of iterations =  1.0

     negative rho (up, down):  2.349E-04 0.000E+00
 
     Adding external electric field

     Computed dipole along edir(3) : 
        Dipole               -0.6881 Ry au,         -1.7490 Debye
        Dipole field         -0.0013 Ry au, 
 
        Potential amp.        0.1395 Ry
        Total length         52.8536 bohr
 

     total cpu time spent up to now is     5355.7 secs

     total energy              =   -7743.65108295 Ry
     estimated scf accuracy    <       0.32376861 Ry

     iteration # 26     ecut=    62.47 Ry     beta= 0.15
     Davidson diagonalization with overlap
     ethr =  5.83E-05,  avg # of iterations =  2.9

     negative rho (up, down):  6.287E-08 0.000E+00
 
     Adding external electric field

     Computed dipole along edir(3) : 
        Dipole               -0.6725 Ry au,         -1.7092 Debye
        Dipole field         -0.0013 Ry au, 
 
        Potential amp.        0.1364 Ry
        Total length         52.8536 bohr
 

     total cpu time spent up to now is     5558.0 secs

     total energy              =   -7743.64082904 Ry
     estimated scf accuracy    <       0.27877970 Ry

     iteration # 27     ecut=    62.47 Ry     beta= 0.15
     Davidson diagonalization with overlap
     ethr =  5.02E-05,  avg # of iterations =  1.2

     negative rho (up, down):  1.944E-07 0.000E+00
 
     Adding external electric field

     Computed dipole along edir(3) : 
        Dipole               -0.6002 Ry au,         -1.5256 Debye
        Dipole field         -0.0012 Ry au, 
 
        Potential amp.        0.1217 Ry
        Total length         52.8536 bohr
 

     total cpu time spent up to now is     5740.5 secs

     total energy              =   -7743.63139452 Ry
     estimated scf accuracy    <       0.72728123 Ry

     iteration # 28     ecut=    62.47 Ry     beta= 0.15
     Davidson diagonalization with overlap
     ethr =  5.02E-05,  avg # of iterations =  1.0

     negative rho (up, down):  2.506E-07 0.000E+00
 
     Adding external electric field

     Computed dipole along edir(3) : 
        Dipole               -0.5550 Ry au,         -1.4106 Debye
        Dipole field         -0.0011 Ry au, 
 
        Potential amp.        0.1125 Ry
        Total length         52.8536 bohr
 

     total cpu time spent up to now is     5919.0 secs

     total energy              =   -7743.62925581 Ry
     estimated scf accuracy    <       0.29606967 Ry

     iteration # 29     ecut=    62.47 Ry     beta= 0.15
     Davidson diagonalization with overlap
     ethr =  5.02E-05,  avg # of iterations =  1.1

     negative rho (up, down):  3.177E-07 0.000E+00
 
     Adding external electric field

     Computed dipole along edir(3) : 
        Dipole               -0.5371 Ry au,         -1.3652 Debye
        Dipole field         -0.0010 Ry au, 
 
        Potential amp.        0.1089 Ry
        Total length         52.8536 bohr
 

     total cpu time spent up to now is     6098.6 secs

     total energy              =   -7743.62803445 Ry
     estimated scf accuracy    <       0.25002662 Ry

     iteration # 30     ecut=    62.47 Ry     beta= 0.15
     Davidson diagonalization with overlap
     ethr =  4.50E-05,  avg # of iterations =  1.1

     negative rho (up, down):  1.463E-07 0.000E+00
 
     Adding external electric field

     Computed dipole along edir(3) : 
        Dipole               -0.5118 Ry au,         -1.3008 Debye
        Dipole field         -0.0010 Ry au, 
 
        Potential amp.        0.1038 Ry
        Total length         52.8536 bohr
 

     total cpu time spent up to now is     6277.8 secs

     total energy              =   -7743.62189513 Ry
     estimated scf accuracy    <       0.23800491 Ry

     iteration # 31     ecut=    62.47 Ry     beta= 0.15
     Davidson diagonalization with overlap
     ethr =  4.29E-05,  avg # of iterations =  1.3

     negative rho (up, down):  2.188E-06 0.000E+00
 
     Adding external electric field

     Computed dipole along edir(3) : 
        Dipole               -0.3331 Ry au,         -0.8466 Debye
        Dipole field         -0.0006 Ry au, 
 
        Potential amp.        0.0675 Ry
        Total length         52.8536 bohr
 

     total cpu time spent up to now is     6458.9 secs

     total energy              =   -7743.60799703 Ry
     estimated scf accuracy    <       0.59989015 Ry

     iteration # 32     ecut=    62.47 Ry     beta= 0.15
     Davidson diagonalization with overlap
     ethr =  4.29E-05,  avg # of iterations =  1.2

     negative rho (up, down):  6.315E-03 0.000E+00
 
     Adding external electric field

     Computed dipole along edir(3) : 
        Dipole               -0.1012 Ry au,         -0.2572 Debye
        Dipole field         -0.0002 Ry au, 
 
        Potential amp.        0.0205 Ry
        Total length         52.8536 bohr
 

     total cpu time spent up to now is     6640.4 secs

     total energy              =   -7743.59511612 Ry
     estimated scf accuracy    <       0.26597174 Ry

     iteration # 33     ecut=    62.47 Ry     beta= 0.15
     Davidson diagonalization with overlap
     ethr =  4.29E-05,  avg # of iterations =  1.3

     negative rho (up, down):  1.095E-02 0.000E+00
 
     Adding external electric field

     Computed dipole along edir(3) : 
        Dipole               -0.0069 Ry au,         -0.0176 Debye
        Dipole field         -0.0000 Ry au, 
 
        Potential amp.        0.0014 Ry
        Total length         52.8536 bohr
 

     total cpu time spent up to now is     6827.8 secs

     total energy              =   -7743.58998077 Ry
     estimated scf accuracy    <       0.27735405 Ry

     iteration # 34     ecut=    62.47 Ry     beta= 0.15
     Davidson diagonalization with overlap
     ethr =  4.29E-05,  avg # of iterations =  1.1

     negative rho (up, down):  2.408E-02 0.000E+00
 
     Adding external electric field

     Computed dipole along edir(3) : 
        Dipole                0.0881 Ry au,          0.2240 Debye
        Dipole field          0.0002 Ry au, 
 
        Potential amp.       -0.0179 Ry
        Total length         52.8536 bohr
 

     total cpu time spent up to now is     7009.5 secs

     total energy              =   -7743.58806228 Ry
     estimated scf accuracy    <       0.11612516 Ry

     iteration # 35     ecut=    62.47 Ry     beta= 0.15
     Davidson diagonalization with overlap
     c_bands:  1 eigenvalues not converged
     ethr =  2.09E-05,  avg # of iterations =  3.4

     negative rho (up, down):  3.707E-02 0.000E+00
 
     Adding external electric field

     Computed dipole along edir(3) : 
        Dipole                0.1665 Ry au,          0.4233 Debye
        Dipole field          0.0003 Ry au, 
 
        Potential amp.       -0.0338 Ry
        Total length         52.8536 bohr
 

     total cpu time spent up to now is     7221.8 secs

     total energy              =   -7743.58515724 Ry
     estimated scf accuracy    <       0.09136351 Ry

     iteration # 36     ecut=    62.47 Ry     beta= 0.15
     Davidson diagonalization with overlap
     c_bands:  2 eigenvalues not converged
     c_bands:  1 eigenvalues not converged
     ethr =  1.65E-05,  avg # of iterations =  3.0

     negative rho (up, down):  3.545E-02 0.000E+00
 
     Adding external electric field

     Computed dipole along edir(3) : 
        Dipole                0.1681 Ry au,          0.4273 Debye
        Dipole field          0.0003 Ry au, 
 
        Potential amp.       -0.0341 Ry
        Total length         52.8536 bohr
 

     total cpu time spent up to now is     7424.2 secs

     total energy              =   -7743.58479430 Ry
     estimated scf accuracy    <       0.03779227 Ry

     iteration # 37     ecut=    62.47 Ry     beta= 0.15
     Davidson diagonalization with overlap
     c_bands:  1 eigenvalues not converged
     c_bands:  1 eigenvalues not converged
     c_bands:  1 eigenvalues not converged
     ethr =  6.81E-06,  avg # of iterations =  8.2

     negative rho (up, down):  3.640E-02 0.000E+00
 
     Adding external electric field

     Computed dipole along edir(3) : 
        Dipole                0.2422 Ry au,          0.6157 Debye
        Dipole field          0.0005 Ry au, 
 
        Potential amp.       -0.0491 Ry
        Total length         52.8536 bohr
 

     total cpu time spent up to now is     7679.1 secs

     total energy              =   -7743.57655187 Ry
     estimated scf accuracy    <       0.04063473 Ry

     iteration # 38     ecut=    62.47 Ry     beta= 0.15
     Davidson diagonalization with overlap
     ethr =  6.81E-06,  avg # of iterations =  1.3

     negative rho (up, down):  3.104E-02 0.000E+00
 
     Adding external electric field

     Computed dipole along edir(3) : 
        Dipole                0.2421 Ry au,          0.6154 Debye
        Dipole field          0.0005 Ry au, 
 
        Potential amp.       -0.0491 Ry
        Total length         52.8536 bohr
 

     total cpu time spent up to now is     7871.1 secs

     total energy              =   -7743.57543683 Ry
     estimated scf accuracy    <       0.03763393 Ry

     iteration # 39     ecut=    62.47 Ry     beta= 0.15
     Davidson diagonalization with overlap
     ethr =  6.78E-06,  avg # of iterations =  1.0

     negative rho (up, down):  5.582E-02 0.000E+00
 
     Adding external electric field

     Computed dipole along edir(3) : 
        Dipole                0.3291 Ry au,          0.8364 Debye
        Dipole field          0.0006 Ry au, 
 
        Potential amp.       -0.0667 Ry
        Total length         52.8536 bohr
 

     total cpu time spent up to now is     8046.7 secs

     total energy              =   -7743.57232098 Ry
     estimated scf accuracy    <       0.03833296 Ry

     iteration # 40     ecut=    62.47 Ry     beta= 0.15
     Davidson diagonalization with overlap
     ethr =  6.78E-06,  avg # of iterations =  1.5

     negative rho (up, down):  5.182E-02 0.000E+00
 
     Adding external electric field

     Computed dipole along edir(3) : 
        Dipole                0.3140 Ry au,          0.7980 Debye
        Dipole field          0.0006 Ry au, 
 
        Potential amp.       -0.0637 Ry
        Total length         52.8536 bohr
 

     total cpu time spent up to now is     8235.0 secs

     total energy              =   -7743.57107443 Ry
     estimated scf accuracy    <       0.09862749 Ry

     iteration # 41     ecut=    62.47 Ry     beta= 0.15
     Davidson diagonalization with overlap
     ethr =  6.78E-06,  avg # of iterations =  1.0

     negative rho (up, down):  6.080E-02 0.000E+00
 
     Adding external electric field

     Computed dipole along edir(3) : 
        Dipole                0.3080 Ry au,          0.7829 Debye
        Dipole field          0.0006 Ry au, 
 
        Potential amp.       -0.0625 Ry
        Total length         52.8536 bohr
 

     total cpu time spent up to now is     8411.3 secs

     total energy              =   -7743.56933520 Ry
     estimated scf accuracy    <       0.16175613 Ry

     iteration # 42     ecut=    62.47 Ry     beta= 0.15
     Davidson diagonalization with overlap
     ethr =  6.78E-06,  avg # of iterations =  1.9

     negative rho (up, down):  5.175E-02 0.000E+00
 
     Adding external electric field

     Computed dipole along edir(3) : 
        Dipole                0.2614 Ry au,          0.6645 Debye
        Dipole field          0.0005 Ry au, 
 
        Potential amp.       -0.0530 Ry
        Total length         52.8536 bohr
 

     total cpu time spent up to now is     8610.0 secs

     total energy              =   -7743.56867238 Ry
     estimated scf accuracy    <       0.08124494 Ry

     iteration # 43     ecut=    62.47 Ry     beta= 0.15
     Davidson diagonalization with overlap
     ethr =  6.78E-06,  avg # of iterations =  1.0

     negative rho (up, down):  2.826E-02 0.000E+00
 
     Adding external electric field

     Computed dipole along edir(3) : 
        Dipole                0.1489 Ry au,          0.3785 Debye
        Dipole field          0.0003 Ry au, 
 
        Potential amp.       -0.0302 Ry
        Total length         52.8536 bohr
 

     total cpu time spent up to now is     8785.5 secs

     total energy              =   -7743.56671592 Ry
     estimated scf accuracy    <       0.05529504 Ry

     iteration # 44     ecut=    62.47 Ry     beta= 0.15
     Davidson diagonalization with overlap
     ethr =  6.78E-06,  avg # of iterations =  1.2

     negative rho (up, down):  6.199E-03 0.000E+00
 
     Adding external electric field

     Computed dipole along edir(3) : 
        Dipole               -0.0196 Ry au,         -0.0497 Debye
        Dipole field         -0.0000 Ry au, 
 
        Potential amp.        0.0040 Ry
        Total length         52.8536 bohr
 

     total cpu time spent up to now is     8966.8 secs

     total energy              =   -7743.56612585 Ry
     estimated scf accuracy    <       0.05754100 Ry

     iteration # 45     ecut=    62.47 Ry     beta= 0.15
     Davidson diagonalization with overlap
     ethr =  6.78E-06,  avg # of iterations =  1.6

     negative rho (up, down):  2.685E-03 0.000E+00
 
     Adding external electric field

     Computed dipole along edir(3) : 
        Dipole               -0.0670 Ry au,         -0.1704 Debye
        Dipole field         -0.0001 Ry au, 
 
        Potential amp.        0.0136 Ry
        Total length         52.8536 bohr
 

     total cpu time spent up to now is     9159.1 secs

     total energy              =   -7743.56625268 Ry
     estimated scf accuracy    <       0.00851974 Ry

     iteration # 46     ecut=    62.47 Ry     beta= 0.15
     Davidson diagonalization with overlap
     c_bands:  1 eigenvalues not converged
     c_bands:  1 eigenvalues not converged
     c_bands:  1 eigenvalues not converged
     c_bands:  1 eigenvalues not converged
     ethr =  1.54E-06,  avg # of iterations =  6.1

     negative rho (up, down):  3.306E-03 0.000E+00
 
     Adding external electric field

     Computed dipole along edir(3) : 
        Dipole               -0.0454 Ry au,         -0.1155 Debye
        Dipole field         -0.0001 Ry au, 
 
        Potential amp.        0.0092 Ry
        Total length         52.8536 bohr
 

     total cpu time spent up to now is     9391.5 secs

     total energy              =   -7743.56612767 Ry
     estimated scf accuracy    <       0.00932223 Ry

     iteration # 47     ecut=    62.47 Ry     beta= 0.15
     Davidson diagonalization with overlap
     c_bands:  1 eigenvalues not converged
     ethr =  1.54E-06,  avg # of iterations =  1.5

     negative rho (up, down):  3.371E-03 0.000E+00
 
     Adding external electric field

     Computed dipole along edir(3) : 
        Dipole               -0.0498 Ry au,         -0.1266 Debye
        Dipole field         -0.0001 Ry au, 
 
        Potential amp.        0.0101 Ry
        Total length         52.8536 bohr
 

     total cpu time spent up to now is     9572.5 secs

     total energy              =   -7743.56598612 Ry
     estimated scf accuracy    <       0.00790178 Ry

     iteration # 48     ecut=    62.47 Ry     beta= 0.15
     Davidson diagonalization with overlap
     ethr =  1.42E-06,  avg # of iterations =  2.4

     negative rho (up, down):  3.505E-03 0.000E+00
 
     Adding external electric field

     Computed dipole along edir(3) : 
        Dipole               -0.0289 Ry au,         -0.0735 Debye
        Dipole field         -0.0001 Ry au, 
 
        Potential amp.        0.0059 Ry
        Total length         52.8536 bohr
 

     total cpu time spent up to now is     9765.4 secs

     total energy              =   -7743.56602082 Ry
     estimated scf accuracy    <       0.00947336 Ry

     iteration # 49     ecut=    62.47 Ry     beta= 0.15
     Davidson diagonalization with overlap
     ethr =  1.42E-06,  avg # of iterations =  1.0

     negative rho (up, down):  1.979E-03 0.000E+00
 
     Adding external electric field

     Computed dipole along edir(3) : 
        Dipole               -0.0467 Ry au,         -0.1186 Debye
        Dipole field         -0.0001 Ry au, 
 
        Potential amp.        0.0095 Ry
        Total length         52.8536 bohr
 

     total cpu time spent up to now is     9945.1 secs

     total energy              =   -7743.56593773 Ry
     estimated scf accuracy    <       0.00129369 Ry

     iteration # 50     ecut=    62.47 Ry     beta= 0.15
     Davidson diagonalization with overlap
     ethr =  2.33E-07,  avg # of iterations =  1.8

     negative rho (up, down):  3.906E-03 0.000E+00
 
     Adding external electric field

     Computed dipole along edir(3) : 
        Dipole               -0.0156 Ry au,         -0.0395 Debye
        Dipole field         -0.0000 Ry au, 
 
        Potential amp.        0.0032 Ry
        Total length         52.8536 bohr
 

     total cpu time spent up to now is    10139.9 secs

     total energy              =   -7743.56588239 Ry
     estimated scf accuracy    <       0.00750412 Ry

     iteration # 51     ecut=    62.47 Ry     beta= 0.15
     Davidson diagonalization with overlap
     ethr =  2.33E-07,  avg # of iterations =  1.1

     negative rho (up, down):  3.108E-03 0.000E+00
 
     Adding external electric field

     Computed dipole along edir(3) : 
        Dipole               -0.0324 Ry au,         -0.0823 Debye
        Dipole field         -0.0001 Ry au, 
 
        Potential amp.        0.0066 Ry
        Total length         52.8536 bohr
 

     total cpu time spent up to now is    10319.0 secs

     total energy              =   -7743.56590311 Ry
     estimated scf accuracy    <       0.00564047 Ry

     iteration # 52     ecut=    62.47 Ry     beta= 0.15
     Davidson diagonalization with overlap
     ethr =  2.33E-07,  avg # of iterations =  1.0

     negative rho (up, down):  3.298E-03 0.000E+00
 
     Adding external electric field

     Computed dipole along edir(3) : 
        Dipole               -0.0302 Ry au,         -0.0769 Debye
        Dipole field         -0.0001 Ry au, 
 
        Potential amp.        0.0061 Ry
        Total length         52.8536 bohr
 

     total cpu time spent up to now is    10496.3 secs

     total energy              =   -7743.56590879 Ry
     estimated scf accuracy    <       0.00025997 Ry

     iteration # 53     ecut=    62.47 Ry     beta= 0.15
     Davidson diagonalization with overlap
     ethr =  4.68E-08,  avg # of iterations =  4.5

     negative rho (up, down):  2.814E-03 0.000E+00
 
     Adding external electric field

     Computed dipole along edir(3) : 
        Dipole               -0.0295 Ry au,         -0.0751 Debye
        Dipole field         -0.0001 Ry au, 
 
        Potential amp.        0.0060 Ry
        Total length         52.8536 bohr
 

     total cpu time spent up to now is    10725.9 secs

     total energy              =   -7743.56591187 Ry
     estimated scf accuracy    <       0.00288640 Ry

     iteration # 54     ecut=    62.47 Ry     beta= 0.15
     Davidson diagonalization with overlap
     ethr =  4.68E-08,  avg # of iterations =  1.0

     negative rho (up, down):  3.289E-03 0.000E+00
 
     Adding external electric field

     Computed dipole along edir(3) : 
        Dipole               -0.0302 Ry au,         -0.0767 Debye
        Dipole field         -0.0001 Ry au, 
 
        Potential amp.        0.0061 Ry
        Total length         52.8536 bohr
 

     total cpu time spent up to now is    10902.7 secs

     total energy              =   -7743.56591825 Ry
     estimated scf accuracy    <       0.00046531 Ry

     iteration # 55     ecut=    62.47 Ry     beta= 0.15
     Davidson diagonalization with overlap
     ethr =  4.68E-08,  avg # of iterations =  1.0

     negative rho (up, down):  3.539E-03 0.000E+00
 
     Adding external electric field

     Computed dipole along edir(3) : 
        Dipole               -0.0283 Ry au,         -0.0720 Debye
        Dipole field         -0.0001 Ry au, 
 
        Potential amp.        0.0057 Ry
        Total length         52.8536 bohr
 

     total cpu time spent up to now is    11079.3 secs

     total energy              =   -7743.56591706 Ry
     estimated scf accuracy    <       0.00109418 Ry

     iteration # 56     ecut=    62.47 Ry     beta= 0.15
     Davidson diagonalization with overlap
     ethr =  4.68E-08,  avg # of iterations =  1.0

     negative rho (up, down):  3.535E-03 0.000E+00
 
     Adding external electric field

     Computed dipole along edir(3) : 
        Dipole               -0.0249 Ry au,         -0.0633 Debye
        Dipole field         -0.0000 Ry au, 
 
        Potential amp.        0.0050 Ry
        Total length         52.8536 bohr
 

     total cpu time spent up to now is    11259.1 secs

     total energy              =   -7743.56591566 Ry
     estimated scf accuracy    <       0.00035843 Ry

     iteration # 57     ecut=    62.47 Ry     beta= 0.15
     Davidson diagonalization with overlap
     ethr =  4.68E-08,  avg # of iterations =  1.0

     negative rho (up, down):  3.453E-03 0.000E+00
 
     Adding external electric field

     Computed dipole along edir(3) : 
        Dipole               -0.0194 Ry au,         -0.0493 Debye
        Dipole field         -0.0000 Ry au, 
 
        Potential amp.        0.0039 Ry
        Total length         52.8536 bohr
 

     total cpu time spent up to now is    11438.5 secs

     total energy              =   -7743.56591343 Ry
     estimated scf accuracy    <       0.00037709 Ry

     iteration # 58     ecut=    62.47 Ry     beta= 0.15
     Davidson diagonalization with overlap
     ethr =  4.68E-08,  avg # of iterations =  1.0

     negative rho (up, down):  3.435E-03 0.000E+00
 
     Adding external electric field

     Computed dipole along edir(3) : 
        Dipole               -0.0166 Ry au,         -0.0422 Debye
        Dipole field         -0.0000 Ry au, 
 
        Potential amp.        0.0034 Ry
        Total length         52.8536 bohr
 

     total cpu time spent up to now is    11617.9 secs

     total energy              =   -7743.56591395 Ry
     estimated scf accuracy    <       0.00001362 Ry

     iteration # 59     ecut=    62.47 Ry     beta= 0.15
     Davidson diagonalization with overlap
     ethr =  2.45E-09,  avg # of iterations =  5.8

     negative rho (up, down):  3.174E-03 0.000E+00
 
     Adding external electric field

     Computed dipole along edir(3) : 
        Dipole               -0.0147 Ry au,         -0.0373 Debye
        Dipole field         -0.0000 Ry au, 
 
        Potential amp.        0.0030 Ry
        Total length         52.8536 bohr
 

     total cpu time spent up to now is    11892.8 secs

     total energy              =   -7743.56591507 Ry
     estimated scf accuracy    <       0.00008251 Ry

     iteration # 60     ecut=    62.47 Ry     beta= 0.15
     Davidson diagonalization with overlap
     ethr =  2.45E-09,  avg # of iterations =  1.0

     negative rho (up, down):  3.108E-03 0.000E+00
 
     Adding external electric field

     Computed dipole along edir(3) : 
        Dipole               -0.0138 Ry au,         -0.0350 Debye
        Dipole field         -0.0000 Ry au, 
 
        Potential amp.        0.0028 Ry
        Total length         52.8536 bohr
 

     total cpu time spent up to now is    12072.4 secs

     total energy              =   -7743.56591498 Ry
     estimated scf accuracy    <       0.00000889 Ry

     iteration # 61     ecut=    62.47 Ry     beta= 0.15
     Davidson diagonalization with overlap
     ethr =  1.60E-09,  avg # of iterations =  1.1

     negative rho (up, down):  2.814E-03 0.000E+00
 
     Adding external electric field

     Computed dipole along edir(3) : 
        Dipole               -0.0109 Ry au,         -0.0276 Debye
        Dipole field         -0.0000 Ry au, 
 
        Potential amp.        0.0022 Ry
        Total length         52.8536 bohr
 

     total cpu time spent up to now is    12253.7 secs

     total energy              =   -7743.56591466 Ry
     estimated scf accuracy    <       0.00000210 Ry

     iteration # 62     ecut=    62.47 Ry     beta= 0.15
     Davidson diagonalization with overlap
     ethr =  3.78E-10,  avg # of iterations =  2.8

     negative rho (up, down):  2.873E-03 0.000E+00
 
     Adding external electric field

     Computed dipole along edir(3) : 
        Dipole               -0.0120 Ry au,         -0.0305 Debye
        Dipole field         -0.0000 Ry au, 
 
        Potential amp.        0.0024 Ry
        Total length         52.8536 bohr
 

     total cpu time spent up to now is    12476.8 secs

     total energy              =   -7743.56591481 Ry
     estimated scf accuracy    <       0.00002201 Ry

     iteration # 63     ecut=    62.47 Ry     beta= 0.15
     Davidson diagonalization with overlap
     ethr =  3.78E-10,  avg # of iterations =  1.0

     negative rho (up, down):  2.857E-03 0.000E+00
 
     Adding external electric field

     Computed dipole along edir(3) : 
        Dipole               -0.0111 Ry au,         -0.0281 Debye
        Dipole field         -0.0000 Ry au, 
 
        Potential amp.        0.0022 Ry
        Total length         52.8536 bohr
 

     total cpu time spent up to now is    12655.1 secs

     total energy              =   -7743.56591487 Ry
     estimated scf accuracy    <       0.00000122 Ry

     iteration # 64     ecut=    62.47 Ry     beta= 0.15
     Davidson diagonalization with overlap
     ethr =  2.20E-10,  avg # of iterations =  1.2

     negative rho (up, down):  2.793E-03 0.000E+00
 
     Adding external electric field

     Computed dipole along edir(3) : 
        Dipole               -0.0063 Ry au,         -0.0160 Debye
        Dipole field         -0.0000 Ry au, 
 
        Potential amp.        0.0013 Ry
        Total length         52.8536 bohr
 

     total cpu time spent up to now is    12837.5 secs

     End of self-consistent calculation

          k = 0.0000 0.0000 0.0000 ( 54647 PWs)   bands (ev):

   -80.0080 -79.9881 -79.9854 -79.9785 -79.9729 -79.9658 -79.9632 -79.9624
   -79.9553 -79.9491 -79.9438 -79.9359 -79.9213 -79.9191 -79.9174 -79.9168
   -79.9164 -79.9145 -79.9125 -79.9111 -79.9052 -79.8991 -79.8250 -79.7609
   -79.7491 -79.6061 -79.6002 -79.5967 -79.4490 -79.4467 -46.3255 -46.3211
   -46.3121 -46.2810 -46.2172 -46.2118 -46.2060 -46.2029 -46.1960 -46.1874
   -46.1830 -46.1781 -46.1608 -46.1512 -46.1419 -46.1369 -46.1359 -46.1211
   -46.1150 -46.1108 -46.1094 -46.1074 -46.1023 -46.0999 -46.0951 -46.0924
   -46.0883 -46.0873 -46.0817 -46.0798 -46.0730 -46.0690 -46.0644 -46.0531
   -46.0369 -46.0351 -46.0339 -46.0241 -46.0198 -46.0189 -46.0152 -46.0144
   -46.0126 -46.0046 -46.0002 -45.9958 -45.9938 -45.9925 -45.9890 -45.9812
   -45.9750 -45.9701 -45.9646 -45.9607 -45.9570 -45.9414 -45.9298 -45.9259
   -45.9208 -45.9183 -45.9165 -45.9154 -45.9083 -45.9059 -45.9049 -45.8985
   -45.8929 -45.8915 -45.8856 -45.8772 -45.8377 -45.8267 -45.8073 -45.7991
   -45.7923 -45.7477 -45.7375 -45.7262 -45.7147 -45.7118 -45.6844 -45.6556
   -45.6389 -45.6156 -45.6013 -45.5926 -45.5889 -45.5371 -45.5172 -45.4720
    -7.1995  -6.7158  -6.0211  -5.2886  -5.0035  -4.9466  -4.9090  -4.7497
    -4.6139  -4.5875  -4.5282  -4.4675  -4.2564  -3.9223  -3.4285  -0.5538
    -0.3225  -0.1053  -0.0313   0.0587   0.0782   0.2046   0.2252   0.4290
     0.5865   0.6738   0.6934   0.8877   0.9164   1.0292   1.1862   1.2459
     1.3764   1.4123   1.6035   1.6510   1.7316   1.8327   1.9311   1.9704
     2.0297   2.1046   2.1287   2.2618   2.2901   2.3305   2.4507   2.4856
     2.5318   2.6235   2.6483   2.6696   2.6862   2.7468   2.8402   3.0870
     3.1405   3.3636   3.4076   3.6378   3.8627   3.8928   3.9115   3.9369
     4.0089   4.0234   4.0543   4.0805   4.1159   4.1571   4.1649   4.1913
     4.2141   4.2402   4.2517   4.2879   4.3081   4.3696   4.3989   4.4039
     4.4856   4.5153   4.5452   4.5656   4.6143   4.6422   4.6980   4.7139
     4.7637   4.8242   4.8840   4.9247   4.9904   5.0184   5.0472   5.1567
     5.1774   5.1859   5.2083   5.2541   5.3292   5.3451   5.3712   5.4169
     5.4478   5.4711   5.5204   5.5407   5.6296   5.6557   5.7242   5.7389
     5.7806   5.8212   5.8476   5.8596   5.8641   5.8928   5.9083   5.9489
     5.9735   6.0272   6.0467   6.0720   6.0839   6.1349   6.1692   6.1765
     6.1991   6.2063   6.2151   6.2447   6.2629   6.2740   6.2870   6.3310
     6.3377   6.3724   6.4183   6.4363   6.4851   6.5086   6.5515   6.5731
     6.6455   6.6840   6.7371   6.7472   6.7783   6.7975   6.8035   6.8284
     6.8352   6.8673   6.8744   6.8939   6.8991   6.9062   6.9334   6.9398
     6.9721   6.9834   7.0570   7.0644   7.0987   7.1442   7.1463   7.1553
     7.1692   7.1738   7.1819   7.2089   7.2297   7.2498   7.2668   7.2904
     7.3111   7.3296   7.3414   7.3731   7.3995   7.4342   7.4474   7.6178
     7.7785   7.8435   7.8781

          k =-0.0600 0.0346 0.0681 ( 54629 PWs)   bands (ev):

   -80.0080 -79.9879 -79.9852 -79.9785 -79.9729 -79.9660 -79.9634 -79.9624
   -79.9553 -79.9492 -79.9438 -79.9359 -79.9213 -79.9191 -79.9174 -79.9168
   -79.9163 -79.9146 -79.9125 -79.9111 -79.9052 -79.8991 -79.8250 -79.7609
   -79.7491 -79.6061 -79.6001 -79.5967 -79.4490 -79.4467 -46.3253 -46.3209
   -46.3119 -46.2809 -46.2178 -46.2125 -46.2069 -46.2035 -46.1966 -46.1887
   -46.1843 -46.1766 -46.1605 -46.1510 -46.1422 -46.1365 -46.1359 -46.1225
   -46.1147 -46.1100 -46.1084 -46.1078 -46.1023 -46.0989 -46.0935 -46.0916
   -46.0885 -46.0857 -46.0810 -46.0789 -46.0723 -46.0689 -46.0637 -46.0538
   -46.0385 -46.0360 -46.0345 -46.0252 -46.0230 -46.0177 -46.0161 -46.0135
   -46.0103 -46.0042 -45.9996 -45.9964 -45.9957 -45.9916 -45.9872 -45.9801
   -45.9744 -45.9708 -45.9660 -45.9611 -45.9559 -45.9418 -45.9307 -45.9259
   -45.9216 -45.9187 -45.9169 -45.9145 -45.9095 -45.9056 -45.9052 -45.8986
   -45.8932 -45.8905 -45.8850 -45.8774 -45.8376 -45.8268 -45.8072 -45.7991
   -45.7920 -45.7477 -45.7375 -45.7265 -45.7147 -45.7119 -45.6844 -45.6558
   -45.6389 -45.6153 -45.6013 -45.5926 -45.5889 -45.5371 -45.5172 -45.4720
    -7.1643  -6.6830  -5.9929  -5.2732  -5.1226  -5.0139  -4.8812  -4.7512
    -4.7107  -4.5862  -4.5058  -4.4266  -4.2392  -3.9430  -3.4278  -0.5089
    -0.3389  -0.2781  -0.0337   0.0227   0.1465   0.2690   0.3316   0.4488
     0.6017   0.6846   0.7833   0.8667   0.9401   1.0948   1.1230   1.2382
     1.3793   1.5059   1.6029   1.6531   1.7390   1.7995   1.9144   1.9523
     2.0271   2.0854   2.1594   2.2372   2.2902   2.3385   2.4357   2.4747
     2.5368   2.5771   2.6395   2.6664   2.7108   2.7492   2.8704   3.0823
     3.1430   3.3642   3.4125   3.6421   3.8250   3.8703   3.9031   3.9534
     3.9659   4.0178   4.0310   4.0527   4.0632   4.1134   4.1483   4.1718
     4.2103   4.2193   4.2705   4.2846   4.3262   4.3738   4.4011   4.4438
     4.4808   4.5113   4.5432   4.5779   4.6262   4.6638   4.7040   4.7238
     4.7734   4.8728   4.8996   4.9246   4.9957   5.0406   5.0750   5.1481
     5.1790   5.1928   5.2100   5.2419   5.3100   5.3488   5.4002   5.4323
     5.4498   5.4774   5.5216   5.5580   5.6046   5.6426   5.7146   5.7612
     5.7887   5.8179   5.8465   5.8584   5.8868   5.9061   5.9189   5.9546
     5.9741   6.0186   6.0596   6.0771   6.0928   6.1340   6.1502   6.1728
     6.2026   6.2063   6.2246   6.2426   6.2543   6.2797   6.2974   6.3158
     6.3484   6.3639   6.4151   6.4454   6.4819   6.5225   6.5608   6.5658
     6.6467   6.6705   6.7067   6.7428   6.7679   6.7729   6.7995   6.8136
     6.8247   6.8526   6.8715   6.8882   6.9019   6.9157   6.9370   6.9498
     6.9831   6.9900   7.0327   7.0596   7.0740   7.1136   7.1279   7.1405
     7.1707   7.1892   7.1986   7.2260   7.2320   7.2616   7.2868   7.3047
     7.3254   7.3426   7.3634   7.3906   7.4592   7.4762   7.5254   7.6566
     7.7843   7.8285   7.9397

          k =-0.1200 0.0693 0.1363 ( 54617 PWs)   bands (ev):

   -80.0079 -79.9875 -79.9849 -79.9785 -79.9730 -79.9664 -79.9636 -79.9624
   -79.9555 -79.9494 -79.9440 -79.9358 -79.9213 -79.9191 -79.9173 -79.9166
   -79.9161 -79.9146 -79.9125 -79.9110 -79.9051 -79.8992 -79.8250 -79.7609
   -79.7491 -79.6062 -79.6000 -79.5967 -79.4490 -79.4467 -46.3246 -46.3202
   -46.3112 -46.2806 -46.2193 -46.2141 -46.2091 -46.2050 -46.1983 -46.1918
   -46.1867 -46.1740 -46.1600 -46.1501 -46.1427 -46.1363 -46.1352 -46.1242
   -46.1154 -46.1106 -46.1097 -46.1063 -46.1003 -46.0959 -46.0905 -46.0894
   -46.0869 -46.0830 -46.0793 -46.0761 -46.0700 -46.0674 -46.0624 -46.0548
   -46.0416 -46.0378 -46.0362 -46.0287 -46.0251 -46.0197 -46.0168 -46.0115
   -46.0087 -46.0037 -46.0008 -45.9972 -45.9955 -45.9903 -45.9837 -45.9779
   -45.9742 -45.9720 -45.9684 -45.9613 -45.9542 -45.9427 -45.9327 -45.9267
   -45.9229 -45.9200 -45.9180 -45.9141 -45.9108 -45.9069 -45.9042 -45.8987
   -45.8931 -45.8892 -45.8833 -45.8778 -45.8375 -45.8268 -45.8070 -45.7991
   -45.7913 -45.7475 -45.7373 -45.7274 -45.7147 -45.7121 -45.6845 -45.6564
   -45.6389 -45.6146 -45.6013 -45.5926 -45.5889 -45.5371 -45.5172 -45.4720
    -7.0601  -6.5856  -5.9104  -5.4010  -5.2252  -5.1502  -4.9151  -4.8198
    -4.7309  -4.6330  -4.5193  -4.3627  -4.1985  -3.9970  -3.4278  -0.5005
    -0.4032  -0.3345  -0.0729  -0.0251   0.1977   0.3770   0.4196   0.5448
     0.7168   0.7741   0.8570   0.9310   1.0265   1.0568   1.1715   1.2691
     1.4059   1.5225   1.6204   1.6820   1.7098   1.7504   1.9126   1.9727
     1.9891   2.0742   2.1846   2.2036   2.3262   2.3488   2.3884   2.4238
     2.5236   2.5451   2.5826   2.6562   2.7150   2.7999   2.9134   3.0606
     3.1434   3.3400   3.4577   3.6444   3.7666   3.8110   3.8555   3.9026
     3.9306   3.9685   3.9822   3.9931   4.0106   4.0412   4.0996   4.1368
     4.1812   4.2324   4.2707   4.3133   4.3367   4.3590   4.4200   4.4435
     4.4886   4.5230   4.5640   4.5824   4.6680   4.6824   4.7552   4.7695
     4.8170   4.8962   4.9288   4.9781   5.0117   5.0825   5.1196   5.1364
     5.1724   5.2148   5.2242   5.2493   5.3018   5.3474   5.4016   5.4401
     5.4523   5.5088   5.5335   5.5723   5.6021   5.6630   5.7183   5.7753
     5.7855   5.8114   5.8492   5.8584   5.8798   5.9173   5.9538   5.9706
     6.0000   6.0198   6.0689   6.0998   6.1125   6.1304   6.1422   6.1603
     6.1813   6.2030   6.2180   6.2451   6.2596   6.2753   6.3112   6.3283
     6.3488   6.3699   6.4312   6.4508   6.4783   6.5222   6.5656   6.5902
     6.6173   6.6533   6.6711   6.7064   6.7187   6.7538   6.7721   6.7916
     6.8172   6.8282   6.8416   6.8700   6.8990   6.9192   6.9340   6.9659
     6.9802   7.0044   7.0300   7.0550   7.0771   7.0830   7.0989   7.1410
     7.1636   7.1854   7.2012   7.2489   7.2691   7.2928   7.3060   7.3312
     7.3787   7.3989   7.4199   7.4690   7.5336   7.5685   7.6848   7.7309
     7.8316   7.9349   8.0116

          k =-0.1800 0.1039 0.2044 ( 54665 PWs)   bands (ev):

   -80.0078 -79.9871 -79.9843 -79.9787 -79.9731 -79.9669 -79.9640 -79.9624
   -79.9556 -79.9497 -79.9442 -79.9358 -79.9213 -79.9190 -79.9171 -79.9165
   -79.9158 -79.9147 -79.9124 -79.9110 -79.9050 -79.8993 -79.8250 -79.7609
   -79.7491 -79.6064 -79.5999 -79.5967 -79.4490 -79.4467 -46.3236 -46.3192
   -46.3102 -46.2802 -46.2213 -46.2162 -46.2119 -46.2068 -46.2001 -46.1955
   -46.1892 -46.1714 -46.1601 -46.1482 -46.1426 -46.1365 -46.1341 -46.1249
   -46.1169 -46.1137 -46.1111 -46.1057 -46.0979 -46.0929 -46.0886 -46.0859
   -46.0839 -46.0788 -46.0761 -46.0726 -46.0658 -46.0632 -46.0616 -46.0541
   -46.0450 -46.0390 -46.0378 -46.0324 -46.0274 -46.0214 -46.0187 -46.0134
   -46.0099 -46.0061 -46.0002 -45.9975 -45.9945 -45.9880 -45.9820 -45.9774
   -45.9748 -45.9717 -45.9689 -45.9605 -45.9523 -45.9429 -45.9347 -45.9287
   -45.9245 -45.9209 -45.9191 -45.9154 -45.9117 -45.9081 -45.9030 -45.8988
   -45.8928 -45.8880 -45.8814 -45.8782 -45.8373 -45.8269 -45.8068 -45.7990
   -45.7904 -45.7472 -45.7372 -45.7285 -45.7147 -45.7124 -45.6845 -45.6571
   -45.6390 -45.6138 -45.6013 -45.5925 -45.5890 -45.5371 -45.5173 -45.4720
    -6.8902  -6.4281  -5.7875  -5.7141  -5.4064  -5.1534  -4.9780  -4.8991
    -4.7567  -4.6497  -4.5401  -4.3396  -4.1564  -4.0651  -3.4307  -0.6581
    -0.3906  -0.2680  -0.0924   0.0120   0.2751   0.4156   0.4687   0.5565
     0.8261   0.8885   0.9347   1.0034   1.1297   1.1709   1.2329   1.3115
     1.4307   1.4938   1.5882   1.6372   1.7119   1.8141   1.8806   1.9443
     2.0084   2.0984   2.1777   2.2164   2.2893   2.3302   2.3753   2.4131
     2.4595   2.5299   2.5586   2.6362   2.7229   2.8240   2.9495   3.0336
     3.1244   3.2992   3.5129   3.6315   3.7105   3.7501   3.7887   3.8353
     3.8506   3.9046   3.9360   3.9635   3.9867   4.0259   4.0602   4.1113
     4.1656   4.2025   4.2572   4.2762   4.3106   4.3857   4.4559   4.4807
     4.5205   4.5373   4.5836   4.6220   4.6639   4.7142   4.7897   4.8051
     4.8669   4.9163   4.9627   5.0031   5.0392   5.0931   5.1533   5.1635
     5.2087   5.2281   5.2407   5.2612   5.3008   5.3386   5.3978   5.4296
     5.4607   5.5212   5.5775   5.5993   5.6240   5.6913   5.7033   5.7492
     5.7846   5.8063   5.8218   5.8815   5.9039   5.9372   5.9841   5.9955
     6.0089   6.0462   6.0667   6.0955   6.1163   6.1406   6.1474   6.1622
     6.1712   6.1931   6.2273   6.2476   6.2604   6.2703   6.3044   6.3310
     6.3762   6.3864   6.4148   6.4562   6.4787   6.5074   6.5627   6.5896
     6.6029   6.6306   6.6510   6.6803   6.7104   6.7253   6.7420   6.7622
     6.7947   6.8116   6.8242   6.8502   6.8790   6.8902   6.9311   6.9675
     6.9929   7.0080   7.0372   7.0489   7.0774   7.1018   7.1367   7.1463
     7.1697   7.2008   7.2130   7.2513   7.3004   7.3237   7.3477   7.3801
     7.4280   7.4587   7.4970   7.5665   7.5986   7.6830   7.7876   7.8244
     7.9377   8.0403   8.1719

          k =-0.2400 0.1386 0.2725 ( 54721 PWs)   bands (ev):

   -80.0076 -79.9867 -79.9836 -79.9789 -79.9733 -79.9673 -79.9642 -79.9625
   -79.9558 -79.9499 -79.9444 -79.9358 -79.9213 -79.9190 -79.9170 -79.9164
   -79.9156 -79.9147 -79.9124 -79.9110 -79.9050 -79.8993 -79.8249 -79.7609
   -79.7491 -79.6065 -79.5998 -79.5967 -79.4490 -79.4467 -46.3228 -46.3184
   -46.3094 -46.2799 -46.2232 -46.2181 -46.2140 -46.2083 -46.2014 -46.1984
   -46.1911 -46.1695 -46.1607 -46.1453 -46.1419 -46.1373 -46.1331 -46.1248
   -46.1189 -46.1163 -46.1124 -46.1058 -46.0972 -46.0917 -46.0873 -46.0831
   -46.0815 -46.0751 -46.0725 -46.0689 -46.0618 -46.0611 -46.0559 -46.0525
   -46.0474 -46.0389 -46.0383 -46.0340 -46.0301 -46.0244 -46.0219 -46.0184
   -46.0122 -46.0076 -46.0008 -45.9972 -45.9941 -45.9861 -45.9817 -45.9781
   -45.9734 -45.9721 -45.9677 -45.9591 -45.9502 -45.9432 -45.9353 -45.9313
   -45.9269 -45.9208 -45.9197 -45.9165 -45.9136 -45.9082 -45.9018 -45.8990
   -45.8928 -45.8871 -45.8802 -45.8783 -45.8371 -45.8269 -45.8067 -45.7990
   -45.7896 -45.7468 -45.7373 -45.7295 -45.7147 -45.7127 -45.6845 -45.6576
   -45.6390 -45.6132 -45.6013 -45.5925 -45.5890 -45.5371 -45.5173 -45.4720
    -6.6608  -6.2211  -6.0563  -5.6813  -5.6096  -5.2128  -4.9836  -4.9526
    -4.7858  -4.6700  -4.5387  -4.3362  -4.1428  -4.1128  -3.4348  -0.7576
    -0.3913  -0.3064   0.0452   0.1064   0.3025   0.3891   0.5014   0.5864
     0.7720   0.9267   1.0130   1.0637   1.2071   1.2615   1.3169   1.3876
     1.4459   1.5479   1.6124   1.6633   1.6997   1.7903   1.8789   1.9432
     1.9633   2.0941   2.1275   2.2156   2.2561   2.3169   2.3581   2.4231
     2.4455   2.5145   2.5783   2.6298   2.7176   2.8309   2.9502   3.0156
     3.1061   3.2687   3.5329   3.6100   3.6747   3.7120   3.7219   3.7779
     3.8074   3.8861   3.8978   3.9503   3.9633   4.0173   4.0496   4.1005
     4.1353   4.1830   4.2237   4.2663   4.3123   4.3861   4.4844   4.5078
     4.5544   4.5888   4.6033   4.6530   4.6662   4.7242   4.7558   4.8287
     4.9220   4.9455   4.9725   5.0239   5.0565   5.0991   5.1439   5.1888
     5.2188   5.2419   5.2586   5.2802   5.3001   5.3357   5.3839   5.4388
     5.4696   5.5436   5.5823   5.6398   5.6616   5.6726   5.7018   5.7523
     5.7803   5.7991   5.8160   5.8753   5.9105   5.9497   5.9740   6.0335
     6.0451   6.0597   6.0675   6.0931   6.1188   6.1414   6.1496   6.1624
     6.1797   6.2091   6.2219   6.2415   6.2613   6.2835   6.3072   6.3281
     6.3550   6.3792   6.4127   6.4389   6.4810   6.5164   6.5599   6.5720
     6.5914   6.6021   6.6418   6.6609   6.6905   6.7158   6.7426   6.7556
     6.7760   6.7863   6.8374   6.8465   6.8645   6.8792   6.9091   6.9698
     6.9883   6.9947   7.0200   7.0616   7.1047   7.1234   7.1538   7.1671
     7.2047   7.2112   7.2415   7.2823   7.3299   7.3437   7.3905   7.4332
     7.4672   7.5093   7.5658   7.6341   7.6642   7.7547   7.8432   7.9549
     8.0403   8.1257   8.2202

          k = 0.3000-0.1732-0.3406 ( 54742 PWs)   bands (ev):

   -80.0076 -79.9866 -79.9833 -79.9791 -79.9733 -79.9675 -79.9643 -79.9625
   -79.9559 -79.9500 -79.9445 -79.9357 -79.9213 -79.9189 -79.9170 -79.9164
   -79.9156 -79.9147 -79.9123 -79.9110 -79.9050 -79.8994 -79.8249 -79.7609
   -79.7491 -79.6065 -79.5998 -79.5967 -79.4490 -79.4467 -46.3225 -46.3181
   -46.3091 -46.2797 -46.2240 -46.2188 -46.2147 -46.2090 -46.2018 -46.1996
   -46.1918 -46.1687 -46.1611 -46.1438 -46.1409 -46.1386 -46.1327 -46.1244
   -46.1202 -46.1172 -46.1128 -46.1060 -46.0972 -46.0913 -46.0871 -46.0820
   -46.0807 -46.0742 -46.0692 -46.0680 -46.0618 -46.0582 -46.0561 -46.0495
   -46.0467 -46.0390 -46.0366 -46.0350 -46.0315 -46.0272 -46.0247 -46.0203
   -46.0137 -46.0080 -46.0013 -45.9971 -45.9942 -45.9856 -45.9812 -45.9780
   -45.9738 -45.9719 -45.9670 -45.9583 -45.9489 -45.9439 -45.9340 -45.9333
   -45.9282 -45.9208 -45.9197 -45.9169 -45.9147 -45.9081 -45.9012 -45.8992
   -45.8928 -45.8867 -45.8799 -45.8781 -45.8371 -45.8269 -45.8067 -45.7989
   -45.7894 -45.7465 -45.7374 -45.7298 -45.7147 -45.7128 -45.6845 -45.6578
   -45.6390 -45.6129 -45.6013 -45.5925 -45.5890 -45.5371 -45.5173 -45.4720
    -6.3978  -6.3645  -5.9802  -5.9383  -5.4766  -5.3290  -4.9994  -4.9267
    -4.7892  -4.6993  -4.5307  -4.3341  -4.1627  -4.1110  -3.4367  -0.7913
    -0.3901  -0.3289   0.1168   0.2020   0.3120   0.3220   0.4642   0.6642
     0.7588   0.8533   1.0730   1.1195   1.1957   1.2638   1.3127   1.4353
     1.4999   1.5615   1.6535   1.7331   1.7640   1.7923   1.8333   1.8524
     1.9419   2.0845   2.1161   2.1929   2.2379   2.3247   2.3668   2.4091
     2.4561   2.4972   2.5895   2.6495   2.7168   2.8361   2.9237   3.0207
     3.0929   3.2617   3.5422   3.5846   3.6631   3.7007   3.7065   3.7540
     3.7872   3.8724   3.9045   3.9367   3.9606   4.0077   4.0504   4.1021
     4.1185   4.1786   4.2108   4.2657   4.3144   4.3903   4.4946   4.5091
     4.5748   4.6053   4.6285   4.6293   4.6954   4.7114   4.7607   4.8458
     4.9247   4.9482   4.9814   5.0264   5.0587   5.1053   5.1295   5.1943
     5.2280   5.2529   5.2740   5.2837   5.3097   5.3208   5.3621   5.4551
     5.4691   5.5552   5.5742   5.6489   5.6890   5.6991   5.7091   5.7392
     5.7706   5.7924   5.8238   5.8561   5.9086   5.9394   5.9712   6.0378
     6.0473   6.0804   6.0986   6.0998   6.1162   6.1324   6.1520   6.1605
     6.1871   6.1978   6.2164   6.2503   6.2583   6.2992   6.3143   6.3231
     6.3361   6.3727   6.4049   6.4584   6.4848   6.4949   6.5530   6.5656
     6.5861   6.6185   6.6341   6.6427   6.6839   6.7037   6.7377   6.7516
     6.7684   6.7981   6.8407   6.8489   6.8623   6.8677   6.8975   6.9729
     6.9827   6.9918   7.0131   7.0718   7.1139   7.1356   7.1642   7.1823
     7.1982   7.2233   7.2433   7.2769   7.3469   7.3932   7.4244   7.4442
     7.4737   7.5349   7.6103   7.6642   7.6893   7.7228   7.9024   8.0701
     8.0966   8.1602   8.1950

          k = 0.0800 0.0693-0.0341 ( 54652 PWs)   bands (ev):

   -80.0080 -79.9879 -79.9852 -79.9784 -79.9729 -79.9659 -79.9635 -79.9625
   -79.9554 -79.9493 -79.9438 -79.9358 -79.9212 -79.9191 -79.9174 -79.9168
   -79.9163 -79.9145 -79.9125 -79.9111 -79.9052 -79.8991 -79.8250 -79.7609
   -79.7491 -79.6061 -79.6001 -79.5967 -79.4490 -79.4467 -46.3253 -46.3209
   -46.3118 -46.2807 -46.2167 -46.2119 -46.2066 -46.2031 -46.1968 -46.1891
   -46.1820 -46.1780 -46.1607 -46.1515 -46.1427 -46.1365 -46.1351 -46.1225
   -46.1145 -46.1107 -46.1084 -46.1074 -46.1022 -46.1009 -46.0945 -46.0930
   -46.0878 -46.0857 -46.0813 -46.0790 -46.0731 -46.0694 -46.0637 -46.0535
   -46.0369 -46.0365 -46.0319 -46.0248 -46.0219 -46.0202 -46.0176 -46.0144
   -46.0090 -46.0050 -46.0004 -45.9966 -45.9939 -45.9927 -45.9885 -45.9806
   -45.9732 -45.9697 -45.9652 -45.9609 -45.9560 -45.9422 -45.9308 -45.9257
   -45.9205 -45.9179 -45.9166 -45.9153 -45.9079 -45.9060 -45.9048 -45.8993
   -45.8937 -45.8915 -45.8854 -45.8771 -45.8375 -45.8268 -45.8075 -45.7988
   -45.7920 -45.7476 -45.7378 -45.7262 -45.7148 -45.7118 -45.6844 -45.6558
   -45.6389 -45.6153 -45.6013 -45.5926 -45.5889 -45.5372 -45.5172 -45.4720
    -7.1523  -6.6716  -5.9825  -5.2617  -5.0506  -4.9784  -4.8966  -4.7440
    -4.6905  -4.5924  -4.5529  -4.4796  -4.2796  -3.9420  -3.4527  -0.5837
    -0.3099  -0.2014  -0.0902  -0.0635   0.1093   0.1640   0.2455   0.3967
     0.5435   0.6371   0.8617   0.9569   0.9902   1.0743   1.1391   1.3368
     1.3570   1.4789   1.6286   1.6729   1.7256   1.8243   1.9117   1.9375
     2.0402   2.0832   2.1665   2.2707   2.3029   2.3355   2.4390   2.4809
     2.5371   2.6096   2.6609   2.6932   2.7091   2.7795   2.8437   3.0519
     3.1623   3.3607   3.3968   3.6564   3.8328   3.8744   3.9210   3.9617
     3.9797   4.0156   4.0262   4.0579   4.1000   4.1346   4.1508   4.1756
     4.2123   4.2248   4.2624   4.2875   4.3065   4.3528   4.3997   4.4281
     4.4825   4.5132   4.5537   4.5810   4.5932   4.6643   4.7160   4.7535
     4.8058   4.8331   4.8861   4.9136   5.0302   5.0492   5.0806   5.1714
     5.1771   5.1953   5.2215   5.2351   5.3153   5.3504   5.3796   5.4098
     5.4605   5.4866   5.5236   5.5458   5.6088   5.6407   5.7158   5.7491
     5.7963   5.8195   5.8406   5.8460   5.8732   5.8826   5.9186   5.9564
     6.0060   6.0207   6.0573   6.0780   6.1089   6.1303   6.1561   6.1903
     6.2000   6.2129   6.2321   6.2483   6.2558   6.2785   6.2888   6.3144
     6.3483   6.3630   6.4011   6.4270   6.4867   6.5128   6.5458   6.5802
     6.6382   6.6810   6.7157   6.7344   6.7784   6.7916   6.7993   6.8267
     6.8435   6.8550   6.8697   6.8766   6.9005   6.9215   6.9273   6.9469
     6.9670   6.9913   7.0222   7.0466   7.0816   7.1260   7.1454   7.1540
     7.1735   7.1848   7.2005   7.2243   7.2351   7.2571   7.2802   7.2965
     7.3206   7.3319   7.3608   7.3780   7.4288   7.4859   7.5434   7.6866
     7.8359   7.8729   7.9055

          k = 0.0200 0.1039 0.0341 ( 54652 PWs)   bands (ev):

   -80.0080 -79.9879 -79.9852 -79.9784 -79.9729 -79.9659 -79.9635 -79.9625
   -79.9553 -79.9493 -79.9438 -79.9358 -79.9212 -79.9191 -79.9174 -79.9168
   -79.9163 -79.9146 -79.9125 -79.9111 -79.9052 -79.8991 -79.8250 -79.7609
   -79.7491 -79.6061 -79.6002 -79.5967 -79.4490 -79.4467 -46.3253 -46.3209
   -46.3119 -46.2810 -46.2174 -46.2117 -46.2067 -46.2033 -46.1964 -46.1880
   -46.1827 -46.1774 -46.1599 -46.1508 -46.1423 -46.1366 -46.1354 -46.1236
   -46.1137 -46.1120 -46.1084 -46.1069 -46.1031 -46.0994 -46.0948 -46.0935
   -46.0892 -46.0849 -46.0810 -46.0787 -46.0725 -46.0694 -46.0643 -46.0528
   -46.0385 -46.0361 -46.0320 -46.0251 -46.0232 -46.0191 -46.0174 -46.0135
   -46.0105 -46.0048 -46.0001 -45.9964 -45.9957 -45.9911 -45.9874 -45.9810
   -45.9734 -45.9695 -45.9640 -45.9609 -45.9573 -45.9418 -45.9305 -45.9259
   -45.9206 -45.9188 -45.9163 -45.9150 -45.9085 -45.9057 -45.9048 -45.8993
   -45.8932 -45.8917 -45.8855 -45.8769 -45.8375 -45.8268 -45.8071 -45.7990
   -45.7922 -45.7481 -45.7374 -45.7262 -45.7147 -45.7116 -45.6844 -45.6556
   -45.6389 -45.6155 -45.6013 -45.5926 -45.5889 -45.5371 -45.5172 -45.4720
    -7.1523  -6.6716  -5.9825  -5.2617  -5.0508  -4.9786  -4.8970  -4.7432
    -4.6899  -4.5922  -4.5532  -4.4789  -4.2810  -3.9421  -3.4525  -0.5836
    -0.3081  -0.2058  -0.0919  -0.0607   0.0752   0.1992   0.2413   0.4350
     0.5074   0.6656   0.8705   0.9067   0.9812   1.0963   1.1496   1.2796
     1.3651   1.5081   1.6211   1.6717   1.7532   1.8133   1.9234   1.9831
     2.0211   2.0781   2.1600   2.2523   2.3040   2.3608   2.4406   2.4773
     2.5317   2.5935   2.6751   2.6839   2.7085   2.7511   2.8320   3.0581
     3.1478   3.3635   3.4068   3.6869   3.8362   3.8753   3.9167   3.9491
     3.9873   4.0236   4.0374   4.0694   4.0841   4.1148   4.1432   4.1838
     4.2196   4.2296   4.2490   4.2774   4.3240   4.3482   4.3917   4.4261
     4.4685   4.5254   4.5587   4.5784   4.6162   4.6370   4.6857   4.7437
     4.7944   4.8473   4.8969   4.9408   4.9979   5.0422   5.0757   5.1649
     5.1765   5.2065   5.2241   5.2713   5.3140   5.3526   5.3822   5.4203
     5.4611   5.4816   5.5391   5.5624   5.6312   5.6477   5.6937   5.7461
     5.7883   5.8096   5.8338   5.8601   5.8808   5.8889   5.9162   5.9617
     6.0038   6.0236   6.0532   6.0658   6.0981   6.1187   6.1613   6.1809
     6.1999   6.2141   6.2246   6.2413   6.2627   6.2810   6.3051   6.3313
     6.3545   6.3817   6.4147   6.4364   6.4876   6.5249   6.5379   6.5864
     6.6280   6.6704   6.6938   6.7329   6.7684   6.7852   6.8062   6.8196
     6.8292   6.8553   6.8669   6.8874   6.8996   6.9212   6.9330   6.9389
     6.9559   6.9826   7.0382   7.0625   7.0708   7.1230   7.1356   7.1570
     7.1723   7.1881   7.2158   7.2212   7.2418   7.2520   7.2811   7.2963
     7.3146   7.3348   7.3766   7.4022   7.4207   7.4765   7.5303   7.6783
     7.7924   7.8572   7.9501

          k =-0.0400 0.1386 0.1022 ( 54609 PWs)   bands (ev):

   -80.0079 -79.9876 -79.9850 -79.9784 -79.9731 -79.9661 -79.9637 -79.9625
   -79.9554 -79.9494 -79.9439 -79.9359 -79.9212 -79.9191 -79.9173 -79.9166
   -79.9163 -79.9147 -79.9125 -79.9111 -79.9051 -79.8991 -79.8250 -79.7609
   -79.7491 -79.6061 -79.6001 -79.5967 -79.4490 -79.4467 -46.3249 -46.3205
   -46.3114 -46.2811 -46.2190 -46.2125 -46.2081 -46.2045 -46.1972 -46.1892
   -46.1853 -46.1749 -46.1587 -46.1497 -46.1425 -46.1371 -46.1349 -46.1253
   -46.1144 -46.1117 -46.1091 -46.1053 -46.1031 -46.0975 -46.0933 -46.0910
   -46.0888 -46.0828 -46.0796 -46.0770 -46.0705 -46.0690 -46.0636 -46.0531
   -46.0414 -46.0383 -46.0343 -46.0276 -46.0250 -46.0196 -46.0171 -46.0120
   -46.0092 -46.0047 -46.0001 -45.9970 -45.9955 -45.9895 -45.9851 -45.9792
   -45.9733 -45.9699 -45.9660 -45.9612 -45.9565 -45.9422 -45.9317 -45.9264
   -45.9223 -45.9206 -45.9168 -45.9137 -45.9097 -45.9064 -45.9044 -45.8993
   -45.8932 -45.8900 -45.8847 -45.8771 -45.8375 -45.8269 -45.8067 -45.7993
   -45.7918 -45.7484 -45.7370 -45.7267 -45.7147 -45.7117 -45.6844 -45.6559
   -45.6389 -45.6153 -45.6013 -45.5926 -45.5889 -45.5371 -45.5172 -45.4720
    -7.0828  -6.6066  -5.9272  -5.2630  -5.2021  -5.0827  -4.8999  -4.8262
    -4.7375  -4.6179  -4.5392  -4.4153  -4.2498  -3.9793  -3.4534  -0.4961
    -0.3726  -0.3362  -0.1236  -0.0625   0.1447   0.2720   0.3329   0.4857
     0.5915   0.6866   0.8731   0.9910   1.0227   1.0942   1.1583   1.2729
[...]
    -4.9337  -4.7775  -4.7130  -4.5369  -4.3613  -4.1925  -3.7150  -0.6961
    -0.6131  -0.3422  -0.2921  -0.0685  -0.0095   0.1943   0.2663   0.3811
     0.4809   0.5923   0.6600   0.7724   1.0155   1.1162   1.2965   1.4503
     1.5991   1.6792   1.7799   1.8141   1.8537   1.9266   1.9683   2.0379
     2.1029   2.1690   2.2000   2.2504   2.3214   2.3963   2.4306   2.4852
     2.5578   2.6359   2.6740   2.7925   2.8187   2.8565   2.8912   3.0134
     3.1936   3.3409   3.4962   3.7011   3.8184   3.8607   3.9098   3.9660
     3.9811   4.0136   4.0393   4.0725   4.1052   4.1482   4.1652   4.1989
     4.2097   4.2436   4.2694   4.2990   4.3259   4.3657   4.3980   4.4476
     4.4614   4.5004   4.5465   4.5598   4.6201   4.6976   4.7250   4.7609
     4.8242   4.8917   4.9437   4.9725   5.0757   5.1295   5.1624   5.1771
     5.1991   5.2594   5.2828   5.2925   5.3262   5.3794   5.4162   5.4524
     5.4859   5.4961   5.5685   5.5942   5.6196   5.6782   5.7219   5.7529
     5.7933   5.8316   5.8398   5.8809   5.9175   5.9380   5.9614   5.9944
     6.0430   6.0704   6.1052   6.1178   6.1544   6.1761   6.1926   6.2034
     6.2151   6.2287   6.2503   6.2665   6.2786   6.2911   6.3180   6.3225
     6.3481   6.3818   6.3950   6.4160   6.4476   6.4725   6.5016   6.5422
     6.5771   6.6029   6.6160   6.6311   6.6837   6.7121   6.7490   6.7827
     6.8060   6.8421   6.8684   6.8803   6.9060   6.9562   6.9754   6.9941
     7.0153   7.0225   7.0599   7.0940   7.1137   7.1223   7.1448   7.1592
     7.1695   7.1889   7.2177   7.2710   7.2914   7.3504   7.3761   7.4000
     7.4703   7.5610   7.6199   7.7132   7.7584   7.9250   7.9729   8.1742
     8.2384   8.4185   8.4866

          k =-0.5200-0.2771 0.3066 ( 54596 PWs)   bands (ev):

   -80.0075 -79.9866 -79.9826 -79.9774 -79.9731 -79.9673 -79.9662 -79.9636
   -79.9563 -79.9511 -79.9442 -79.9350 -79.9208 -79.9190 -79.9166 -79.9164
   -79.9152 -79.9146 -79.9129 -79.9111 -79.9052 -79.8993 -79.8250 -79.7607
   -79.7493 -79.6064 -79.5999 -79.5967 -79.4490 -79.4467 -46.3234 -46.3183
   -46.3094 -46.2794 -46.2190 -46.2133 -46.2084 -46.2052 -46.1999 -46.1956
   -46.1823 -46.1681 -46.1610 -46.1496 -46.1402 -46.1378 -46.1296 -46.1260
   -46.1197 -46.1180 -46.1108 -46.1086 -46.1055 -46.0973 -46.0918 -46.0885
   -46.0858 -46.0819 -46.0783 -46.0748 -46.0687 -46.0635 -46.0600 -46.0544
   -46.0441 -46.0434 -46.0366 -46.0307 -46.0273 -46.0211 -46.0171 -46.0119
   -46.0109 -46.0064 -46.0048 -45.9997 -45.9930 -45.9864 -45.9795 -45.9758
   -45.9729 -45.9671 -45.9620 -45.9566 -45.9527 -45.9467 -45.9394 -45.9291
   -45.9213 -45.9196 -45.9152 -45.9127 -45.9100 -45.9083 -45.9051 -45.8988
   -45.8970 -45.8910 -45.8843 -45.8763 -45.8356 -45.8272 -45.8090 -45.7969
   -45.7897 -45.7485 -45.7389 -45.7265 -45.7150 -45.7112 -45.6844 -45.6571
   -45.6389 -45.6139 -45.6013 -45.5927 -45.5890 -45.5379 -45.5173 -45.4720
    -6.3099  -5.8987  -5.7595  -5.5459  -5.4066  -5.3191  -5.2282  -5.0051
    -4.9195  -4.7923  -4.6761  -4.5239  -4.3659  -4.1755  -3.7209  -0.6346
    -0.5627  -0.3767  -0.2951  -0.1519   0.0380   0.1657   0.2174   0.3775
     0.5092   0.6098   0.6457   0.7897   0.9910   1.0728   1.3189   1.4302
     1.6171   1.6829   1.7846   1.8308   1.8761   1.9328   1.9862   2.0214
     2.1192   2.1338   2.2077   2.2587   2.3513   2.3733   2.4235   2.4640
     2.5784   2.6205   2.6735   2.7499   2.8094   2.8582   2.9297   3.0088
     3.1893   3.3132   3.5476   3.7129   3.8212   3.8718   3.9273   3.9473
     3.9646   3.9941   4.0085   4.0622   4.1123   4.1525   4.1765   4.1970
     4.2327   4.2518   4.2857   4.3012   4.3336   4.3843   4.3995   4.4216
     4.4449   4.4807   4.5152   4.5595   4.6210   4.6719   4.7039   4.7656
     4.8420   4.9018   4.9620   5.0214   5.0779   5.1208   5.1523   5.1717
     5.1891   5.2378   5.2971   5.3015   5.3587   5.3810   5.4274   5.4539
     5.4757   5.5064   5.5772   5.5810   5.6032   5.6606   5.7171   5.7508
     5.7768   5.8316   5.8508   5.8907   5.9055   5.9423   5.9680   5.9990
     6.0362   6.0777   6.1094   6.1326   6.1595   6.1777   6.1812   6.1979
     6.2158   6.2330   6.2453   6.2649   6.2729   6.2882   6.3166   6.3345
     6.3719   6.3795   6.4035   6.4371   6.4518   6.4833   6.5181   6.5321
     6.5810   6.6186   6.6225   6.6345   6.6908   6.7041   6.7429   6.7986
     6.8193   6.8457   6.8640   6.8798   6.8978   6.9454   6.9701   6.9883
     7.0114   7.0233   7.0510   7.0925   7.0938   7.1231   7.1454   7.1678
     7.1786   7.1913   7.2241   7.2548   7.3046   7.3537   7.3741   7.4062
     7.4849   7.5714   7.6072   7.6679   7.7311   7.9426   8.0212   8.1598
     8.2678   8.3761   8.5139

          k =-0.5800-0.2425 0.3747 ( 54596 PWs)   bands (ev):

   -80.0075 -79.9865 -79.9827 -79.9774 -79.9734 -79.9670 -79.9664 -79.9636
   -79.9562 -79.9510 -79.9442 -79.9352 -79.9208 -79.9189 -79.9166 -79.9164
   -79.9152 -79.9147 -79.9128 -79.9112 -79.9051 -79.8992 -79.8250 -79.7607
   -79.7493 -79.6062 -79.6000 -79.5967 -79.4490 -79.4467 -46.3236 -46.3184
   -46.3095 -46.2805 -46.2195 -46.2127 -46.2091 -46.2064 -46.1986 -46.1942
   -46.1796 -46.1674 -46.1611 -46.1480 -46.1404 -46.1378 -46.1292 -46.1267
   -46.1219 -46.1163 -46.1121 -46.1096 -46.1053 -46.0966 -46.0918 -46.0886
   -46.0858 -46.0812 -46.0778 -46.0750 -46.0685 -46.0636 -46.0599 -46.0534
   -46.0471 -46.0425 -46.0391 -46.0328 -46.0284 -46.0230 -46.0169 -46.0129
   -46.0099 -46.0062 -46.0016 -45.9996 -45.9917 -45.9851 -45.9799 -45.9761
   -45.9711 -45.9663 -45.9626 -45.9571 -45.9532 -45.9460 -45.9396 -45.9294
   -45.9228 -45.9209 -45.9169 -45.9132 -45.9092 -45.9081 -45.9039 -45.8981
   -45.8958 -45.8912 -45.8845 -45.8760 -45.8358 -45.8274 -45.8077 -45.7977
   -45.7902 -45.7502 -45.7372 -45.7265 -45.7148 -45.7107 -45.6844 -45.6566
   -45.6388 -45.6146 -45.6013 -45.5928 -45.5889 -45.5378 -45.5173 -45.4720
    -6.3098  -5.8975  -5.7618  -5.5455  -5.4040  -5.3243  -5.2249  -5.0075
    -4.9166  -4.7929  -4.6751  -4.5275  -4.3677  -4.1638  -3.7298  -0.6340
    -0.5681  -0.3566  -0.2946  -0.2032   0.0554   0.1732   0.2544   0.3907
     0.4987   0.6140   0.6389   0.8296   0.9078   1.0346   1.3507   1.4432
     1.6028   1.7022   1.8039   1.8347   1.8995   1.9419   1.9926   2.0333
     2.0822   2.1570   2.2136   2.2628   2.3492   2.3926   2.4133   2.4538
     2.5532   2.6179   2.6588   2.7126   2.8039   2.8536   2.9262   3.0065
     3.1616   3.2875   3.5950   3.7253   3.8209   3.8954   3.9213   3.9406
     3.9590   3.9898   4.0330   4.0418   4.1022   4.1355   4.1833   4.1985
     4.2211   4.2583   4.2830   4.3192   4.3379   4.3555   4.3705   4.4062
     4.4267   4.4858   4.5180   4.5598   4.6369   4.6640   4.7069   4.7834
     4.8799   4.9050   4.9808   5.0377   5.0631   5.1258   5.1459   5.1741
     5.1959   5.2428   5.2906   5.3165   5.3373   5.4135   5.4357   5.4551
     5.4890   5.5189   5.5749   5.5872   5.6009   5.6326   5.7018   5.7597
     5.7726   5.8177   5.8458   5.8930   5.9113   5.9435   5.9893   6.0021
     6.0477   6.0845   6.1062   6.1431   6.1497   6.1624   6.1803   6.1981
     6.2125   6.2256   6.2430   6.2657   6.2813   6.2958   6.3127   6.3372
     6.3749   6.3884   6.4156   6.4217   6.4524   6.4769   6.5168   6.5601
     6.5744   6.6087   6.6338   6.6484   6.6992   6.7257   6.7429   6.8021
     6.8310   6.8561   6.8712   6.8829   6.8946   6.9275   6.9696   6.9813
     7.0164   7.0283   7.0594   7.0778   7.0942   7.1205   7.1412   7.1620
     7.1759   7.2009   7.2195   7.2771   7.2947   7.3563   7.3648   7.4321
     7.4547   7.5426   7.5855   7.6358   7.7847   7.9492   8.0365   8.0705
     8.2701   8.4101   8.5486

          k =-0.6400-0.2078 0.4428 ( 54594 PWs)   bands (ev):

   -80.0075 -79.9864 -79.9827 -79.9773 -79.9736 -79.9670 -79.9663 -79.9636
   -79.9561 -79.9508 -79.9443 -79.9353 -79.9207 -79.9189 -79.9166 -79.9165
   -79.9152 -79.9148 -79.9127 -79.9112 -79.9051 -79.8991 -79.8250 -79.7607
   -79.7493 -79.6061 -79.6002 -79.5967 -79.4490 -79.4467 -46.3238 -46.3185
   -46.3097 -46.2814 -46.2200 -46.2125 -46.2091 -46.2072 -46.1974 -46.1930
   -46.1775 -46.1667 -46.1611 -46.1467 -46.1407 -46.1378 -46.1285 -46.1272
   -46.1238 -46.1157 -46.1133 -46.1104 -46.1037 -46.0963 -46.0929 -46.0879
   -46.0860 -46.0809 -46.0769 -46.0743 -46.0694 -46.0645 -46.0590 -46.0546
   -46.0509 -46.0430 -46.0372 -46.0340 -46.0306 -46.0254 -46.0171 -46.0134
   -46.0089 -46.0039 -45.9998 -45.9983 -45.9895 -45.9853 -45.9806 -45.9752
   -45.9698 -45.9663 -45.9624 -45.9574 -45.9547 -45.9453 -45.9401 -45.9299
   -45.9240 -45.9216 -45.9180 -45.9137 -45.9087 -45.9082 -45.9029 -45.8975
   -45.8950 -45.8912 -45.8846 -45.8760 -45.8359 -45.8276 -45.8064 -45.7986
   -45.7906 -45.7514 -45.7361 -45.7266 -45.7147 -45.7103 -45.6844 -45.6562
   -45.6388 -45.6152 -45.6013 -45.5928 -45.5889 -45.5378 -45.5173 -45.4720
    -6.2535  -5.9705  -5.8331  -5.5955  -5.3106  -5.2750  -5.1077  -5.0721
    -4.9317  -4.7761  -4.7100  -4.5474  -4.3670  -4.1607  -3.7382  -0.6971
    -0.6150  -0.3161  -0.2752  -0.2231   0.0860   0.1949   0.3535   0.4022
     0.4980   0.6040   0.6494   0.7811   0.8432   1.0513   1.3130   1.5186
     1.6448   1.7157   1.7838   1.8291   1.8906   1.9349   1.9763   2.0584
     2.0897   2.1806   2.2226   2.2727   2.3331   2.3623   2.4002   2.4836
     2.5278   2.5931   2.6744   2.6984   2.7746   2.8544   2.9155   3.0094
     3.1182   3.2492   3.6252   3.7396   3.8358   3.8858   3.9108   3.9440
     3.9739   3.9957   4.0386   4.0688   4.0936   4.1191   4.1678   4.1857
     4.2168   4.2352   4.2600   4.2927   4.3070   4.3344   4.3770   4.4066
     4.4343   4.4951   4.5523   4.5968   4.6201   4.6781   4.7035   4.8257
     4.8874   4.9209   4.9937   5.0377   5.0672   5.1471   5.1641   5.1674
     5.2128   5.2399   5.2747   5.2994   5.3274   5.4131   5.4473   5.4637
     5.4933   5.5529   5.5745   5.5857   5.6069   5.6280   5.6960   5.7498
     5.7839   5.8150   5.8354   5.8758   5.9287   5.9307   6.0038   6.0275
     6.0570   6.0817   6.0970   6.1378   6.1505   6.1615   6.1789   6.1946
     6.2169   6.2300   6.2444   6.2557   6.2854   6.2938   6.3143   6.3231
     6.3549   6.3739   6.3989   6.4162   6.4578   6.4900   6.5250   6.5540
     6.5828   6.6108   6.6403   6.6715   6.7077   6.7260   6.7590   6.7947
     6.8336   6.8522   6.8707   6.8889   6.9277   6.9429   6.9599   6.9927
     7.0142   7.0362   7.0527   7.0906   7.0976   7.1230   7.1360   7.1463
     7.1735   7.2026   7.2166   7.2621   7.3010   7.3228   7.3691   7.4053
     7.4569   7.5123   7.5637   7.6898   7.8017   7.9292   8.0031   8.0376
     8.2055   8.5036   8.5647

          k =-0.1000-0.5196-0.1703 ( 54588 PWs)   bands (ev):

   -80.0074 -79.9864 -79.9827 -79.9773 -79.9737 -79.9671 -79.9662 -79.9636
   -79.9561 -79.9508 -79.9443 -79.9353 -79.9207 -79.9189 -79.9167 -79.9165
   -79.9151 -79.9148 -79.9127 -79.9113 -79.9051 -79.8990 -79.8250 -79.7607
   -79.7493 -79.6060 -79.6002 -79.5967 -79.4490 -79.4467 -46.3239 -46.3185
   -46.3097 -46.2818 -46.2202 -46.2125 -46.2091 -46.2073 -46.1969 -46.1926
   -46.1768 -46.1664 -46.1611 -46.1462 -46.1409 -46.1378 -46.1283 -46.1271
   -46.1246 -46.1162 -46.1134 -46.1104 -46.1026 -46.0964 -46.0937 -46.0874
   -46.0859 -46.0811 -46.0764 -46.0733 -46.0705 -46.0648 -46.0588 -46.0553
   -46.0532 -46.0427 -46.0365 -46.0335 -46.0332 -46.0256 -46.0170 -46.0135
   -46.0088 -46.0024 -45.9996 -45.9972 -45.9891 -45.9850 -45.9812 -45.9746
   -45.9685 -45.9673 -45.9617 -45.9573 -45.9559 -45.9450 -45.9404 -45.9301
   -45.9246 -45.9220 -45.9182 -45.9140 -45.9086 -45.9081 -45.9025 -45.8972
   -45.8948 -45.8912 -45.8846 -45.8760 -45.8360 -45.8277 -45.8058 -45.7991
   -45.7907 -45.7518 -45.7357 -45.7266 -45.7147 -45.7102 -45.6844 -45.6561
   -45.6388 -45.6155 -45.6012 -45.5928 -45.5889 -45.5377 -45.5173 -45.4720
    -6.1727  -6.0969  -5.7573  -5.7114  -5.2513  -5.1913  -5.0980  -5.0706
    -4.9725  -4.7720  -4.7248  -4.5612  -4.3662  -4.1611  -3.7417  -0.7451
    -0.6016  -0.3301  -0.2964  -0.2130   0.1524   0.2480   0.2906   0.4426
     0.5071   0.6256   0.6623   0.7443   0.7951   1.0576   1.2894   1.5825
     1.6561   1.7302   1.7977   1.8147   1.8640   1.9109   1.9596   2.0651
     2.1227   2.1889   2.2238   2.2589   2.3225   2.3494   2.4055   2.5062
     2.5290   2.5951   2.6349   2.7025   2.7549   2.8758   2.9068   3.0281
     3.0863   3.2215   3.6351   3.7522   3.8471   3.8787   3.8958   3.9384
     3.9818   4.0100   4.0496   4.0804   4.0821   4.1283   4.1515   4.1758
     4.1976   4.2230   4.2447   4.2814   4.3006   4.3252   4.4000   4.4075
     4.4289   4.5016   4.5852   4.5964   4.6416   4.6534   4.7006   4.8475
     4.8873   4.9272   4.9996   5.0380   5.0833   5.1448   5.1670   5.2080
     5.2135   5.2371   5.2480   5.2764   5.3330   5.4043   5.4558   5.4789
     5.4858   5.5634   5.5728   5.5865   5.6048   5.6428   5.6814   5.7466
     5.7913   5.8169   5.8334   5.8649   5.9205   5.9533   6.0035   6.0387
     6.0621   6.0865   6.0996   6.1382   6.1461   6.1602   6.1721   6.1871
     6.2104   6.2214   6.2510   6.2630   6.2760   6.2899   6.2997   6.3260
     6.3487   6.3692   6.3953   6.4092   6.4582   6.4921   6.5385   6.5645
     6.5901   6.6073   6.6366   6.6770   6.7198   6.7285   6.7589   6.7852
     6.8326   6.8452   6.8751   6.8870   6.9478   6.9533   6.9797   6.9951
     7.0193   7.0320   7.0427   7.0955   7.0988   7.1115   7.1313   7.1571
     7.1708   7.1929   7.2161   7.2591   7.2733   7.3330   7.3710   7.3948
     7.4599   7.4952   7.5602   7.7561   7.7892   7.8682   7.9861   8.0314
     8.1868   8.5341   8.5725

     the Fermi energy is     6.9222 ev

!    total energy              =   -7743.56591467 Ry
     estimated scf accuracy    <       0.00000049 Ry
     smearing contrib. (-TS)   =      -0.12108035 Ry
     internal energy E=F+TS    =   -7743.44483432 Ry

     The total energy is F=E-TS. E is the sum of the following terms:
     one-electron contribution =  -75308.58062845 Ry
     hartree contribution      =   37777.15862360 Ry
     xc contribution           =    -967.58861258 Ry
     ewald contribution        =   30755.56578303 Ry
     electric field correction =       0.00000008 Ry

     convergence has been achieved in  64 iterations

     negative rho (up, down):  2.793E-03 0.000E+00

     Forces acting on atoms (cartesian axes, Ry/au):

     atom    1 type  1   force =     0.01015892   -0.02326920   -0.01267006
     atom    2 type  1   force =     0.01800788   -0.03111585   -0.00001364
     atom    3 type  1   force =     0.01805597   -0.02928607   -0.00040802
     atom    4 type  1   force =     0.01522834   -0.02231934    0.00179307
     atom    5 type  1   force =    -0.02273279   -0.00405217   -0.07654835
     atom    6 type  1   force =    -0.03308806    0.01217069   -0.01522780
     atom    7 type  1   force =    -0.03289826   -0.00287086    0.00197200
     atom    8 type  1   force =    -0.03428238   -0.00036200    0.00007671
     atom    9 type  1   force =    -0.03061901   -0.00381339   -0.00167743
     atom   10 type  1   force =    -0.04083841    0.03539788   -0.04150077
     atom   11 type  1   force =     0.06679034   -0.01430300    0.03831999
     atom   12 type  1   force =     0.01336422    0.02723314   -0.00412071
     atom   13 type  1   force =     0.01791605    0.03009752    0.00026388
     atom   14 type  1   force =     0.01767473    0.02935737    0.00186328
     atom   15 type  1   force =    -0.00189918    0.01408451   -0.00858318
     atom   16 type  1   force =    -0.03242046   -0.01042725   -0.02739024
     atom   17 type  1   force =     0.00614979   -0.01560729   -0.01277582
     atom   18 type  1   force =    -0.00502771   -0.00975205    0.00185701
     atom   19 type  1   force =    -0.00537566   -0.00970186   -0.00008772
     atom   20 type  1   force =     0.00047231   -0.01109832    0.00209855
     atom   21 type  1   force =    -0.00461981   -0.00521375   -0.00580473
     atom   22 type  1   force =     0.01571046    0.00089351    0.00590708
     atom   23 type  1   force =     0.01078696    0.00016287   -0.00003846
     atom   24 type  1   force =     0.00686510    0.00197313   -0.00178430
     atom   25 type  1   force =     0.02501617    0.04035573    0.02531577
     atom   26 type  1   force =    -0.01011550    0.00731352    0.02516503
     atom   27 type  1   force =    -0.00713834    0.01248439   -0.00335069
     atom   28 type  1   force =    -0.00604055    0.00953886   -0.00014895
     atom   29 type  1   force =    -0.00607462    0.00918531   -0.00072978
     atom   30 type  1   force =    -0.00184123    0.00064105    0.02455245
     atom   31 type  2   force =    -0.00630144    0.00175570   -0.02975315
     atom   32 type  2   force =     0.00266219    0.00057659    0.00098955
     atom   33 type  2   force =    -0.00038640    0.00075456   -0.00089707
     atom   34 type  2   force =     0.00406504   -0.00125316    0.00822177
     atom   35 type  2   force =     0.02461403   -0.01384298    0.04445433
     atom   36 type  2   force =    -0.00593044    0.03292078    0.02708348
     atom   37 type  2   force =    -0.00883096    0.00215303   -0.01472059
     atom   38 type  2   force =    -0.00065216    0.00030236   -0.00030332
     atom   39 type  2   force =     0.00069163   -0.00116761    0.00089396
     atom   40 type  2   force =     0.01169839   -0.00949285    0.04068743
     atom   41 type  2   force =     0.00162173   -0.03212882   -0.04617597
     atom   42 type  2   force =    -0.00715368    0.00212730   -0.01173885
     atom   43 type  2   force =    -0.00052046    0.00011954   -0.00161391
     atom   44 type  2   force =    -0.00145413    0.00225762   -0.00020193
     atom   45 type  2   force =     0.01869138   -0.02277916    0.06675009

     Total force =     0.232495     Total SCF correction =     0.004884

     Writing all to output data dir ./calc.save/
 
     init_run     :     98.38s CPU    100.52s WALL (       1 calls)
     electrons    :  12531.74s CPU  12736.86s WALL (       1 calls)
     forces       :     46.39s CPU     46.80s WALL (       1 calls)

     Called by init_run:
     wfcinit      :     93.98s CPU     95.70s WALL (       1 calls)
     potinit      :      1.03s CPU      1.06s WALL (       1 calls)
     hinit0       :      1.85s CPU      2.04s WALL (       1 calls)

     Called by electrons:
     c_bands      :  10979.72s CPU  11146.99s WALL (      64 calls)
     sum_band     :   1372.48s CPU   1397.68s WALL (      64 calls)
     v_of_rho     :     15.83s CPU     16.17s WALL (      65 calls)
     newd         :     74.74s CPU     86.13s WALL (      65 calls)
     mix_rho      :     88.63s CPU     89.47s WALL (      64 calls)

     Called by c_bands:
     init_us_2    :    117.56s CPU    117.81s WALL (    6760 calls)
     init_us_2:cp :    117.51s CPU    117.78s WALL (    6760 calls)
     cegterg      :  10290.30s CPU  10446.30s WALL (    3328 calls)

     Called by *egterg:
     cdiaghg      :   1430.74s CPU   1436.99s WALL (   10225 calls)
     h_psi        :   4714.66s CPU   4786.27s WALL (   10277 calls)
     s_psi        :   1072.19s CPU   1072.67s WALL (   10277 calls)
     g_psi        :     20.64s CPU     20.68s WALL (    6897 calls)

     Called by h_psi:
     h_psi:calbec :   1144.51s CPU   1150.02s WALL (   10277 calls)
     vloc_psi     :   2466.25s CPU   2496.64s WALL (   10277 calls)
     add_vuspsi   :   1075.28s CPU   1077.12s WALL (   10277 calls)

     General routines
     calbec       :   1707.04s CPU   1714.84s WALL (   13813 calls)
     fft          :     40.92s CPU     42.69s WALL (     854 calls)
     ffts         :     32.36s CPU     32.67s WALL (   25828 calls)
     fftw         :   2698.63s CPU   2732.48s WALL ( 5321500 calls)
     interpolate  :      1.00s CPU      1.01s WALL (      65 calls)
 
     Parallel routines
 
     PWSCF        :      3h31m CPU      3h35m WALL

 
   This run was terminated on:   5:42:15   8Aug2023            

=------------------------------------------------------------------------------=
   JOB DONE.
=------------------------------------------------------------------------------=
