  python dir          : /home/p.schindler/.conda/envs/dft3_8/lib/python3.8/site-packages/espresso
  espresso dir        : /home/p.schindler/q-e_7-1/bin/
  pseudo dir          : /home/p.schindler/q-e_7-1/PSPs/Vanderbilt_USPP_PBE/
  ase-espresso py git : 4b1d7e3-git



     Program PWSCF v.7.1 starts on  8Aug2023 at  2: 6:58 

     This program is part of the open-source Quantum ESPRESSO suite
     for quantum simulation of materials; please cite
         "P. Giannozzi et al., J. Phys.:Condens. Matter 21 395502 (2009);
         "P. Giannozzi et al., J. Phys.:Condens. Matter 29 465901 (2017);
         "P. Giannozzi et al., J. Chem. Phys. 152 154105 (2020);
          URL http://www.quantum-espresso.org", 
     in publications or presentations arising from this work. More details at
     http://www.quantum-espresso.org/quote

     Parallel version (MPI), running on    20 processors

     MPI processes distributed on     1 nodes
     144260 MiB available memory on the printing compute node when the environment starts
 
     Reading input from pw.inp

     Current dimensions of program PWSCF are:
     Max number of different atomic species (ntypx) = 10
     Max number of k-points (npk) =  40000
     Max angular momentum in pseudopotentials (lmaxx) =  4
     Presently no symmetry can be used with electric field

     file Nd.UPF: wavefunction(s)  5D renormalized

     IMPORTANT: XC functional enforced from input :
     Exchange-correlation= PBE
                           (   1   4   3   4   0   0   0)
     Any further DFT definition will be discarded
     Please, verify this is what you really want

 
     R & G space division:  proc/nbgrp/npool/nimage =      20
     Subspace diagonalization in iterative solution of the eigenvalue problem:
     a serial algorithm will be used

 
     Parallelization info
     --------------------
     sticks:   dense  smooth     PW     G-vecs:    dense   smooth      PW
     Min         519     207     56               175769    44455    6240
     Max         520     208     57               175779    44472    6253
     Sum       10395    4157   1123              3515467   889349  124857
 
     Using Slab Decomposition
 


     bravais-lattice index     =            0
     lattice parameter (alat)  =      15.5872  a.u.
     unit-cell volume          =   13331.6061 (a.u.)^3
     number of atoms/cell      =           48
     number of atomic types    =            2
     number of electrons       =       360.00
     number of Kohn-Sham states=          210
     kinetic-energy cutoff     =      62.4738  Ry
     charge density cutoff     =     624.7385  Ry
     scf convergence threshold =      7.3E-07
     mixing beta               =       0.1500
     number of iterations used =           10  local-TF  mixing
     Exchange-correlation= PBE
                           (   1   4   3   4   0   0   0)

     celldm(1)=  15.587181  celldm(2)=   0.000000  celldm(3)=   0.000000
     celldm(4)=   0.000000  celldm(5)=   0.000000  celldm(6)=   0.000000

     crystal axes: (cart. coord. in units of alat)
               a(1) = (   0.000000   0.000000  -1.000000 )  
               a(2) = (   0.475667  -0.717076   0.000000 )  
               a(3) = (  -3.272830  -2.466924  -0.000000 )  

     reciprocal axes: (cart. coord. in units 2 pi/alat)
               b(1) = (  0.000000  0.000000 -1.000000 )  
               b(2) = (  0.700771 -0.929702  0.000000 )  
               b(3) = ( -0.203697 -0.135121  0.000000 )  


     PseudoPot. # 1 for Nd read from file:
     /home/p.schindler/q-e_7-1/PSPs/Vanderbilt_USPP_PBE/Nd.UPF
     MD5 check sum: bef2943fb18cbb8e8bdde2aeb5a8f829
     Pseudo is Projector augmented-wave + core cor, Zval = 11.0
     Generated using "atomic" code by A. Dal Corso  v.5.1.2
     Shape of augmentation charge: PSQ
     Using radial grid of 1257 points,  6 beta functions with: 
                l(1) =   0
                l(2) =   0
                l(3) =   1
                l(4) =   1
                l(5) =   2
                l(6) =   2
     Q(r) pseudized with 0 coefficients 


     PseudoPot. # 2 for Si read from file:
     /home/p.schindler/q-e_7-1/PSPs/Vanderbilt_USPP_PBE/Si.UPF
     MD5 check sum: a056efeee980c13900f22a371efd63c1
     Pseudo is Ultrasoft + core correction, Zval =  4.0
     Generated by new atomic code, or converted to UPF format
     Using radial grid of  899 points,  6 beta functions with: 
                l(1) =   0
                l(2) =   0
                l(3) =   1
                l(4) =   1
                l(5) =   2
                l(6) =   2
     Q(r) pseudized with  8 coefficients,  rinner =    0.900   0.900   0.900
                                                       0.900   0.900

     atomic species   valence    mass     pseudopotential
        Nd1           11.00   144.24200     Nd( 1.00)
        Si1            4.00    28.08500     Si( 1.00)

     No symmetry found



   Cartesian axes

     site n.     atom                  positions (alat units)
         1           Nd1 tau(   1) = (  -1.0418315  -0.9564055  -0.3207378  )
         2           Nd1 tau(   2) = (  -1.9931650  -1.6734814  -0.3207378  )
         3           Nd1 tau(   3) = (  -0.5661647  -0.9564055  -0.3207378  )
         4           Nd1 tau(   4) = (  -1.5174982  -1.6734814  -0.3207378  )
         5           Nd1 tau(   5) = (  -1.0418315  -1.6734814  -0.3207378  )
         6           Nd1 tau(   6) = (  -1.9931650  -2.3905572  -0.3207378  )
         7           Nd1 tau(   7) = (  -0.8039981  -0.7934424  -0.6792622  )
         8           Nd1 tau(   8) = (  -1.7553316  -1.5105182  -0.6792622  )
         9           Nd1 tau(   9) = (  -1.2796649  -1.5105182  -0.6792622  )
        10           Nd1 tau(  10) = (  -2.2309984  -2.2275940  -0.6792622  )
        11           Nd1 tau(  11) = (  -0.8039981  -1.5105182  -0.6792622  )
        12           Nd1 tau(  12) = (  -1.7553316  -2.2275940  -0.6792622  )
        13           Nd1 tau(  13) = (  -0.3283314  -1.3149435  -0.1792622  )
        14           Nd1 tau(  14) = (  -1.2796649  -2.0320193  -0.1792622  )
        15           Nd1 tau(  15) = (  -1.2796649  -1.3149435  -0.1792622  )
        16           Nd1 tau(  16) = (  -2.2309984  -2.0320193  -0.1792622  )
        17           Nd1 tau(  17) = (  -0.8039981  -1.3149435  -0.1792622  )
        18           Nd1 tau(  18) = (  -1.7553316  -2.0320193  -0.1792622  )
        19           Nd1 tau(  19) = (  -1.0418315  -1.1519803  -0.8207378  )
        20           Nd1 tau(  20) = (  -1.9931650  -1.8690561  -0.8207378  )
        21           Nd1 tau(  21) = (  -0.5661647  -1.1519803  -0.8207378  )
        22           Nd1 tau(  22) = (  -1.5174982  -1.8690561  -0.8207378  )
        23           Nd1 tau(  23) = (  -1.5174982  -1.1519803  -0.8207378  )
        24           Nd1 tau(  24) = (  -2.4688317  -1.8690561  -0.8207378  )
        25           Si1 tau(  25) = (  -0.5661647  -1.3199688  -0.4650056  )
        26           Si1 tau(  26) = (  -1.5174982  -2.0370446  -0.4650056  )
        27           Si1 tau(  27) = (  -1.5174982  -1.3199688  -0.4650056  )
        28           Si1 tau(  28) = (  -2.4688317  -2.0370446  -0.4650056  )
        29           Si1 tau(  29) = (  -1.0418315  -1.3199688  -0.4650056  )
        30           Si1 tau(  30) = (  -1.9931650  -2.0370446  -0.4650056  )
        31           Si1 tau(  31) = (  -0.8039981  -1.1469549  -0.5349944  )
        32           Si1 tau(  32) = (  -1.7553316  -1.8640308  -0.5349944  )
        33           Si1 tau(  33) = (  -0.3283314  -1.1469549  -0.5349944  )
        34           Si1 tau(  34) = (  -1.2796649  -1.8640308  -0.5349944  )
        35           Si1 tau(  35) = (  -1.2796649  -1.1469549  -0.5349944  )
        36           Si1 tau(  36) = (  -2.2309984  -1.8640308  -0.5349944  )
        37           Si1 tau(  37) = (  -0.8039981  -0.9614309  -0.0349944  )
        38           Si1 tau(  38) = (  -1.7553316  -1.6785067  -0.0349944  )
        39           Si1 tau(  39) = (  -1.2796649  -1.6785067  -0.0349944  )
        40           Si1 tau(  40) = (  -2.2309984  -2.3955825  -0.0349944  )
        41           Si1 tau(  41) = (  -0.8039981  -1.6785067  -0.0349944  )
        42           Si1 tau(  42) = (  -1.7553316  -2.3955825  -0.0349944  )
        43           Si1 tau(  43) = (  -1.0418315  -0.7884170  -0.9650056  )
        44           Si1 tau(  44) = (  -1.9931650  -1.5054929  -0.9650056  )
        45           Si1 tau(  45) = (  -0.5661647  -0.7884170  -0.9650056  )
        46           Si1 tau(  46) = (  -1.5174982  -1.5054929  -0.9650056  )
        47           Si1 tau(  47) = (  -1.0418315  -1.5054929  -0.9650056  )
        48           Si1 tau(  48) = (  -1.9931650  -2.2225687  -0.9650056  )

     number of k points=    34  Gaussian smearing, width (Ry)=  0.0147
                       cart. coord. in units 2pi/alat
        k(    1) = (   0.0000000   0.0000000   0.0000000), wk =   0.0312500
        k(    2) = (   0.0875963  -0.1162127   0.0000000), wk =   0.0625000
        k(    3) = (   0.1751927  -0.2324254   0.0000000), wk =   0.0625000
        k(    4) = (   0.2627890  -0.3486382   0.0000000), wk =   0.0625000
        k(    5) = (  -0.3503854   0.4648509   0.0000000), wk =   0.0312500
        k(    6) = (   0.0000000   0.0000000  -0.1250000), wk =   0.0625000
        k(    7) = (   0.0875963  -0.1162127  -0.1250000), wk =   0.0625000
        k(    8) = (   0.1751927  -0.2324254  -0.1250000), wk =   0.0625000
        k(    9) = (   0.2627890  -0.3486382  -0.1250000), wk =   0.0625000
        k(   10) = (  -0.3503854   0.4648509  -0.1250000), wk =   0.0625000
        k(   11) = (  -0.2627890   0.3486382  -0.1250000), wk =   0.0625000
        k(   12) = (  -0.1751927   0.2324254  -0.1250000), wk =   0.0625000
        k(   13) = (  -0.0875963   0.1162127  -0.1250000), wk =   0.0625000
        k(   14) = (   0.0000000   0.0000000  -0.2500000), wk =   0.0625000
        k(   15) = (   0.0875963  -0.1162127  -0.2500000), wk =   0.0625000
        k(   16) = (   0.1751927  -0.2324254  -0.2500000), wk =   0.0625000
        k(   17) = (   0.2627890  -0.3486382  -0.2500000), wk =   0.0625000
        k(   18) = (  -0.3503854   0.4648509  -0.2500000), wk =   0.0625000
        k(   19) = (  -0.2627890   0.3486382  -0.2500000), wk =   0.0625000
        k(   20) = (  -0.1751927   0.2324254  -0.2500000), wk =   0.0625000
        k(   21) = (  -0.0875963   0.1162127  -0.2500000), wk =   0.0625000
        k(   22) = (   0.0000000   0.0000000  -0.3750000), wk =   0.0625000
        k(   23) = (   0.0875963  -0.1162127  -0.3750000), wk =   0.0625000
        k(   24) = (   0.1751927  -0.2324254  -0.3750000), wk =   0.0625000
        k(   25) = (   0.2627890  -0.3486382  -0.3750000), wk =   0.0625000
        k(   26) = (  -0.3503854   0.4648509  -0.3750000), wk =   0.0625000
        k(   27) = (  -0.2627890   0.3486382  -0.3750000), wk =   0.0625000
        k(   28) = (  -0.1751927   0.2324254  -0.3750000), wk =   0.0625000
        k(   29) = (  -0.0875963   0.1162127  -0.3750000), wk =   0.0625000
        k(   30) = (  -0.0000000  -0.0000000   0.5000000), wk =   0.0312500
        k(   31) = (   0.0875963  -0.1162127   0.5000000), wk =   0.0625000
        k(   32) = (   0.1751927  -0.2324254   0.5000000), wk =   0.0625000
        k(   33) = (   0.2627890  -0.3486382   0.5000000), wk =   0.0625000
        k(   34) = (  -0.3503854   0.4648509   0.5000000), wk =   0.0312500

     Dense  grid:  3515467 G-vectors     FFT dimensions: ( 125, 108, 512)

     Smooth grid:   889349 G-vectors     FFT dimensions: (  80,  72, 324)

     Estimated max dynamical RAM per process >       1.47 GB

     Estimated total dynamical RAM >      29.32 GB

     Initial potential from superposition of free atoms

     starting charge     359.3761, renormalised to     360.0000

     negative rho (up, down):  1.243E-03 0.000E+00
 
     Adding external electric field

     Computed dipole along edir(3) : 
        Dipole                0.0000 Ry au,          0.0000 Debye
        Dipole field          0.0000 Ry au, 
 
        Potential amp.       -0.0000 Ry
        Total length         62.2859 bohr
 
     Starting wfcs are  408 randomized atomic wfcs
     Checking if some PAW data can be deallocated... 

     total cpu time spent up to now is      105.1 secs

     Self-consistent Calculation

     iteration #  1     ecut=    62.47 Ry     beta= 0.15
     Davidson diagonalization with overlap
     ethr =  1.00E-02,  avg # of iterations =  2.0

     negative rho (up, down):  1.005E-05 0.000E+00
 
     Adding external electric field

     Computed dipole along edir(3) : 
        Dipole               -0.0304 Ry au,         -0.0772 Debye
        Dipole field         -0.0000 Ry au, 
 
        Potential amp.        0.0036 Ry
        Total length         62.2859 bohr
 

     total cpu time spent up to now is      260.2 secs

     total energy              =  -12216.47820864 Ry
     estimated scf accuracy    <      15.76780365 Ry

     iteration #  2     ecut=    62.47 Ry     beta= 0.15
     Davidson diagonalization with overlap
     ethr =  4.38E-03,  avg # of iterations =  1.0
 
     Adding external electric field

     Computed dipole along edir(3) : 
        Dipole               -0.2342 Ry au,         -0.5953 Debye
        Dipole field         -0.0002 Ry au, 
 
        Potential amp.        0.0275 Ry
        Total length         62.2859 bohr
 

     total cpu time spent up to now is      389.0 secs

     total energy              =  -12215.76006373 Ry
     estimated scf accuracy    <      12.52460632 Ry

     iteration #  3     ecut=    62.47 Ry     beta= 0.15
     Davidson diagonalization with overlap
     ethr =  3.48E-03,  avg # of iterations =  1.0
 
     Adding external electric field

     Computed dipole along edir(3) : 
        Dipole               -0.3104 Ry au,         -0.7891 Debye
        Dipole field         -0.0003 Ry au, 
 
        Potential amp.        0.0365 Ry
        Total length         62.2859 bohr
 

     total cpu time spent up to now is      517.8 secs

     total energy              =  -12215.93947367 Ry
     estimated scf accuracy    <       2.02684527 Ry

     iteration #  4     ecut=    62.47 Ry     beta= 0.15
     Davidson diagonalization with overlap
     ethr =  5.63E-04,  avg # of iterations =  1.1

     negative rho (up, down):  2.632E-04 0.000E+00
 
     Adding external electric field

     Computed dipole along edir(3) : 
        Dipole               -0.6490 Ry au,         -1.6496 Debye
        Dipole field         -0.0006 Ry au, 
 
        Potential amp.        0.0762 Ry
        Total length         62.2859 bohr
 

     total cpu time spent up to now is      647.3 secs

     total energy              =  -12215.79354120 Ry
     estimated scf accuracy    <       1.47343174 Ry

     iteration #  5     ecut=    62.47 Ry     beta= 0.15
     Davidson diagonalization with overlap
     ethr =  4.09E-04,  avg # of iterations =  4.0

     negative rho (up, down):  2.786E-04 0.000E+00
 
     Adding external electric field

     Computed dipole along edir(3) : 
        Dipole               -0.7075 Ry au,         -1.7983 Debye
        Dipole field         -0.0007 Ry au, 
 
        Potential amp.        0.0831 Ry
        Total length         62.2859 bohr
 

     total cpu time spent up to now is      809.4 secs

     total energy              =  -12215.94882479 Ry
     estimated scf accuracy    <       0.55270410 Ry

     iteration #  6     ecut=    62.47 Ry     beta= 0.15
     Davidson diagonalization with overlap
     ethr =  1.54E-04,  avg # of iterations =  8.0

     negative rho (up, down):  3.386E-04 0.000E+00
 
     Adding external electric field

     Computed dipole along edir(3) : 
        Dipole               -0.7063 Ry au,         -1.7951 Debye
        Dipole field         -0.0007 Ry au, 
 
        Potential amp.        0.0829 Ry
        Total length         62.2859 bohr
 

     total cpu time spent up to now is      981.5 secs

     total energy              =  -12215.97075664 Ry
     estimated scf accuracy    <       0.55313323 Ry

     iteration #  7     ecut=    62.47 Ry     beta= 0.15
     Davidson diagonalization with overlap
     ethr =  1.54E-04,  avg # of iterations =  1.4

     negative rho (up, down):  7.333E-03 0.000E+00
 
     Adding external electric field

     Computed dipole along edir(3) : 
        Dipole               -1.0233 Ry au,         -2.6009 Debye
        Dipole field         -0.0010 Ry au, 
 
        Potential amp.        0.1202 Ry
        Total length         62.2859 bohr
 

     total cpu time spent up to now is     1114.7 secs

     total energy              =  -12215.98653301 Ry
     estimated scf accuracy    <       0.58850273 Ry

     iteration #  8     ecut=    62.47 Ry     beta= 0.15
     Davidson diagonalization with overlap
     ethr =  1.54E-04,  avg # of iterations =  2.8

     negative rho (up, down):  4.061E-02 0.000E+00
 
     Adding external electric field

     Computed dipole along edir(3) : 
        Dipole               -1.1563 Ry au,         -2.9390 Debye
        Dipole field         -0.0011 Ry au, 
 
        Potential amp.        0.1358 Ry
        Total length         62.2859 bohr
 

     total cpu time spent up to now is     1260.0 secs

     total energy              =  -12215.89424243 Ry
     estimated scf accuracy    <       0.66694173 Ry

     iteration #  9     ecut=    62.47 Ry     beta= 0.15
     Davidson diagonalization with overlap
     ethr =  1.54E-04,  avg # of iterations =  1.0

     negative rho (up, down):  4.432E-03 0.000E+00
 
     Adding external electric field

     Computed dipole along edir(3) : 
        Dipole               -0.9777 Ry au,         -2.4851 Debye
        Dipole field         -0.0009 Ry au, 
 
        Potential amp.        0.1148 Ry
        Total length         62.2859 bohr
 

     total cpu time spent up to now is     1389.9 secs

     total energy              =  -12215.85343179 Ry
     estimated scf accuracy    <       0.22527669 Ry

     iteration # 10     ecut=    62.47 Ry     beta= 0.15
     Davidson diagonalization with overlap
     ethr =  6.26E-05,  avg # of iterations =  3.3

     negative rho (up, down):  1.418E-04 0.000E+00
 
     Adding external electric field

     Computed dipole along edir(3) : 
        Dipole               -0.8886 Ry au,         -2.2586 Debye
        Dipole field         -0.0008 Ry au, 
 
        Potential amp.        0.1043 Ry
        Total length         62.2859 bohr
 

     total cpu time spent up to now is     1551.4 secs

     total energy              =  -12215.87629184 Ry
     estimated scf accuracy    <       0.06698888 Ry

     iteration # 11     ecut=    62.47 Ry     beta= 0.15
     Davidson diagonalization with overlap
     c_bands:  1 eigenvalues not converged
     c_bands:  1 eigenvalues not converged
     c_bands:  1 eigenvalues not converged
     ethr =  1.86E-05,  avg # of iterations = 11.3
 
     Adding external electric field

     Computed dipole along edir(3) : 
        Dipole               -0.8329 Ry au,         -2.1170 Debye
        Dipole field         -0.0008 Ry au, 
 
        Potential amp.        0.0978 Ry
        Total length         62.2859 bohr
 

     total cpu time spent up to now is     1745.1 secs

     total energy              =  -12215.88147417 Ry
     estimated scf accuracy    <       0.07006773 Ry

     iteration # 12     ecut=    62.47 Ry     beta= 0.15
     Davidson diagonalization with overlap
     ethr =  1.86E-05,  avg # of iterations =  1.2
 
     Adding external electric field

     Computed dipole along edir(3) : 
        Dipole               -0.7822 Ry au,         -1.9883 Debye
        Dipole field         -0.0007 Ry au, 
 
        Potential amp.        0.0919 Ry
        Total length         62.2859 bohr
 

     total cpu time spent up to now is     1876.9 secs

     total energy              =  -12215.88305774 Ry
     estimated scf accuracy    <       0.09070803 Ry

     iteration # 13     ecut=    62.47 Ry     beta= 0.15
     Davidson diagonalization with overlap
     ethr =  1.86E-05,  avg # of iterations =  1.0
 
     Adding external electric field

     Computed dipole along edir(3) : 
        Dipole               -0.2654 Ry au,         -0.6747 Debye
        Dipole field         -0.0003 Ry au, 
 
        Potential amp.        0.0312 Ry
        Total length         62.2859 bohr
 

     total cpu time spent up to now is     2005.9 secs

     total energy              =  -12215.90980329 Ry
     estimated scf accuracy    <       0.10437947 Ry

     iteration # 14     ecut=    62.47 Ry     beta= 0.15
     Davidson diagonalization with overlap
     c_bands:  2 eigenvalues not converged
     ethr =  1.86E-05,  avg # of iterations =  6.5

     negative rho (up, down):  5.382E-03 0.000E+00
 
     Adding external electric field

     Computed dipole along edir(3) : 
        Dipole                0.1725 Ry au,          0.4383 Debye
        Dipole field          0.0002 Ry au, 
 
        Potential amp.       -0.0203 Ry
        Total length         62.2859 bohr
 

     total cpu time spent up to now is     2226.4 secs

     total energy              =  -12216.00318657 Ry
     estimated scf accuracy    <       0.51786590 Ry

     iteration # 15     ecut=    62.47 Ry     beta= 0.15
     Davidson diagonalization with overlap
     ethr =  1.86E-05,  avg # of iterations =  9.5

     negative rho (up, down):  1.124E-02 0.000E+00
 
     Adding external electric field

     Computed dipole along edir(3) : 
        Dipole               -0.0711 Ry au,         -0.1808 Debye
        Dipole field         -0.0001 Ry au, 
 
        Potential amp.        0.0084 Ry
        Total length         62.2859 bohr
 

     total cpu time spent up to now is     2437.8 secs

     total energy              =  -12215.93965287 Ry
     estimated scf accuracy    <       1.16384015 Ry

     iteration # 16     ecut=    62.47 Ry     beta= 0.15
     Davidson diagonalization with overlap
     ethr =  1.86E-05,  avg # of iterations =  2.0

     negative rho (up, down):  1.746E-02 0.000E+00
 
     Adding external electric field

     Computed dipole along edir(3) : 
        Dipole               -0.0741 Ry au,         -0.1883 Debye
        Dipole field         -0.0001 Ry au, 
 
        Potential amp.        0.0087 Ry
        Total length         62.2859 bohr
 

     total cpu time spent up to now is     2588.2 secs

     total energy              =  -12215.93285393 Ry
     estimated scf accuracy    <       0.73092345 Ry

     iteration # 17     ecut=    62.47 Ry     beta= 0.15
     Davidson diagonalization with overlap
     ethr =  1.86E-05,  avg # of iterations =  1.0

     negative rho (up, down):  1.165E-02 0.000E+00
 
     Adding external electric field

     Computed dipole along edir(3) : 
        Dipole               -0.1767 Ry au,         -0.4490 Debye
        Dipole field         -0.0002 Ry au, 
 
        Potential amp.        0.0207 Ry
        Total length         62.2859 bohr
 

     total cpu time spent up to now is     2717.4 secs

     total energy              =  -12215.89345272 Ry
     estimated scf accuracy    <       0.59853487 Ry

     iteration # 18     ecut=    62.47 Ry     beta= 0.15
     Davidson diagonalization with overlap
     ethr =  1.86E-05,  avg # of iterations =  3.9

     negative rho (up, down):  1.389E-02 0.000E+00
 
     Adding external electric field

     Computed dipole along edir(3) : 
        Dipole               -0.2181 Ry au,         -0.5543 Debye
        Dipole field         -0.0002 Ry au, 
 
        Potential amp.        0.0256 Ry
        Total length         62.2859 bohr
 

     total cpu time spent up to now is     2877.5 secs

     total energy              =  -12215.87572179 Ry
     estimated scf accuracy    <       0.28314125 Ry

     iteration # 19     ecut=    62.47 Ry     beta= 0.15
     Davidson diagonalization with overlap
     ethr =  1.86E-05,  avg # of iterations =  5.0

     negative rho (up, down):  1.084E-02 0.000E+00
 
     Adding external electric field

     Computed dipole along edir(3) : 
        Dipole                0.0199 Ry au,          0.0507 Debye
        Dipole field          0.0000 Ry au, 
 
        Potential amp.       -0.0023 Ry
        Total length         62.2859 bohr
 

     total cpu time spent up to now is     3041.2 secs

     total energy              =  -12215.86619948 Ry
     estimated scf accuracy    <       0.14945497 Ry

     iteration # 20     ecut=    62.47 Ry     beta= 0.15
     Davidson diagonalization with overlap
     ethr =  1.86E-05,  avg # of iterations =  2.1

     negative rho (up, down):  1.572E-02 0.000E+00
 
     Adding external electric field

     Computed dipole along edir(3) : 
        Dipole               -0.0070 Ry au,         -0.0179 Debye
        Dipole field         -0.0000 Ry au, 
 
        Potential amp.        0.0008 Ry
        Total length         62.2859 bohr
 

     total cpu time spent up to now is     3186.1 secs

     total energy              =  -12215.85990841 Ry
     estimated scf accuracy    <       0.10076932 Ry

     iteration # 21     ecut=    62.47 Ry     beta= 0.15
     Davidson diagonalization with overlap
     ethr =  1.86E-05,  avg # of iterations =  2.9

     negative rho (up, down):  6.122E-03 0.000E+00
 
     Adding external electric field

     Computed dipole along edir(3) : 
        Dipole                0.0885 Ry au,          0.2249 Debye
        Dipole field          0.0001 Ry au, 
 
        Potential amp.       -0.0104 Ry
        Total length         62.2859 bohr
 

     total cpu time spent up to now is     3333.2 secs

     total energy              =  -12215.85490008 Ry
     estimated scf accuracy    <       0.04102661 Ry

     iteration # 22     ecut=    62.47 Ry     beta= 0.15
     Davidson diagonalization with overlap
     c_bands:  1 eigenvalues not converged
     c_bands:  1 eigenvalues not converged
     ethr =  1.14E-05,  avg # of iterations =  9.8

     negative rho (up, down):  1.702E-02 0.000E+00
 
     Adding external electric field

     Computed dipole along edir(3) : 
        Dipole                0.1887 Ry au,          0.4795 Debye
        Dipole field          0.0002 Ry au, 
 
        Potential amp.       -0.0222 Ry
        Total length         62.2859 bohr
 

     total cpu time spent up to now is     3527.6 secs

     total energy              =  -12215.85774040 Ry
     estimated scf accuracy    <       0.00857458 Ry

     iteration # 23     ecut=    62.47 Ry     beta= 0.15
     Davidson diagonalization with overlap
     c_bands:  1 eigenvalues not converged
     c_bands:  1 eigenvalues not converged
     c_bands:  1 eigenvalues not converged
     c_bands:  1 eigenvalues not converged
     c_bands:  1 eigenvalues not converged
     ethr =  2.38E-06,  avg # of iterations = 12.6

     negative rho (up, down):  1.808E-02 0.000E+00
 
     Adding external electric field

     Computed dipole along edir(3) : 
        Dipole                0.0978 Ry au,          0.2486 Debye
        Dipole field          0.0001 Ry au, 
 
        Potential amp.       -0.0115 Ry
        Total length         62.2859 bohr
 

     total cpu time spent up to now is     3756.8 secs

     total energy              =  -12215.85830275 Ry
     estimated scf accuracy    <       0.01097118 Ry

     iteration # 24     ecut=    62.47 Ry     beta= 0.15
     Davidson diagonalization with overlap
     ethr =  2.38E-06,  avg # of iterations =  1.0

     negative rho (up, down):  1.549E-02 0.000E+00
 
     Adding external electric field

     Computed dipole along edir(3) : 
        Dipole                0.0684 Ry au,          0.1739 Debye
        Dipole field          0.0001 Ry au, 
 
        Potential amp.       -0.0080 Ry
        Total length         62.2859 bohr
 

     total cpu time spent up to now is     3887.6 secs

     total energy              =  -12215.85837492 Ry
     estimated scf accuracy    <       0.00161417 Ry

     iteration # 25     ecut=    62.47 Ry     beta= 0.15
     Davidson diagonalization with overlap
     ethr =  4.48E-07,  avg # of iterations =  2.1

     negative rho (up, down):  1.084E-02 0.000E+00
 
     Adding external electric field

     Computed dipole along edir(3) : 
        Dipole                0.0564 Ry au,          0.1433 Debye
        Dipole field          0.0001 Ry au, 
 
        Potential amp.       -0.0066 Ry
        Total length         62.2859 bohr
 

     total cpu time spent up to now is     4034.2 secs

     total energy              =  -12215.85839140 Ry
     estimated scf accuracy    <       0.00086280 Ry

     iteration # 26     ecut=    62.47 Ry     beta= 0.15
     Davidson diagonalization with overlap
     ethr =  2.40E-07,  avg # of iterations =  2.9

     negative rho (up, down):  5.580E-03 0.000E+00
 
     Adding external electric field

     Computed dipole along edir(3) : 
        Dipole                0.0504 Ry au,          0.1282 Debye
        Dipole field          0.0000 Ry au, 
 
        Potential amp.       -0.0059 Ry
        Total length         62.2859 bohr
 

     total cpu time spent up to now is     4203.1 secs

     total energy              =  -12215.85863770 Ry
     estimated scf accuracy    <       0.00078578 Ry

     iteration # 27     ecut=    62.47 Ry     beta= 0.15
     Davidson diagonalization with overlap
     ethr =  2.18E-07,  avg # of iterations =  2.0

     negative rho (up, down):  1.023E-03 0.000E+00
 
     Adding external electric field

     Computed dipole along edir(3) : 
        Dipole                0.0122 Ry au,          0.0310 Debye
        Dipole field          0.0000 Ry au, 
 
        Potential amp.       -0.0014 Ry
        Total length         62.2859 bohr
 

     total cpu time spent up to now is     4349.1 secs

     total energy              =  -12215.85863110 Ry
     estimated scf accuracy    <       0.00076048 Ry

     iteration # 28     ecut=    62.47 Ry     beta= 0.15
     Davidson diagonalization with overlap
     ethr =  2.11E-07,  avg # of iterations =  2.1

     negative rho (up, down):  2.419E-04 0.000E+00
 
     Adding external electric field

     Computed dipole along edir(3) : 
        Dipole                0.0101 Ry au,          0.0257 Debye
        Dipole field          0.0000 Ry au, 
 
        Potential amp.       -0.0012 Ry
        Total length         62.2859 bohr
 

     total cpu time spent up to now is     4509.9 secs

     total energy              =  -12215.85880986 Ry
     estimated scf accuracy    <       0.00018917 Ry

     iteration # 29     ecut=    62.47 Ry     beta= 0.15
     Davidson diagonalization with overlap
     ethr =  5.25E-08,  avg # of iterations =  2.8

     negative rho (up, down):  3.111E-04 0.000E+00
 
     Adding external electric field

     Computed dipole along edir(3) : 
        Dipole                0.0051 Ry au,          0.0130 Debye
        Dipole field          0.0000 Ry au, 
 
        Potential amp.       -0.0006 Ry
        Total length         62.2859 bohr
 

     total cpu time spent up to now is     4678.0 secs

     total energy              =  -12215.85889730 Ry
     estimated scf accuracy    <       0.00010942 Ry

     iteration # 30     ecut=    62.47 Ry     beta= 0.15
     Davidson diagonalization with overlap
     ethr =  3.04E-08,  avg # of iterations =  2.0

     negative rho (up, down):  3.957E-04 0.000E+00
 
     Adding external electric field

     Computed dipole along edir(3) : 
        Dipole                0.0024 Ry au,          0.0062 Debye
        Dipole field          0.0000 Ry au, 
 
        Potential amp.       -0.0003 Ry
        Total length         62.2859 bohr
 

     total cpu time spent up to now is     4825.5 secs

     total energy              =  -12215.85889269 Ry
     estimated scf accuracy    <       0.00007004 Ry

     iteration # 31     ecut=    62.47 Ry     beta= 0.15
     Davidson diagonalization with overlap
     ethr =  1.95E-08,  avg # of iterations =  1.0

     negative rho (up, down):  2.440E-04 0.000E+00
 
     Adding external electric field

     Computed dipole along edir(3) : 
        Dipole                0.0025 Ry au,          0.0063 Debye
        Dipole field          0.0000 Ry au, 
 
        Potential amp.       -0.0003 Ry
        Total length         62.2859 bohr
 

     total cpu time spent up to now is     4956.6 secs

     total energy              =  -12215.85888820 Ry
     estimated scf accuracy    <       0.00001991 Ry
          

=------------------------------------------------------------------------------=
   ERROR. Convergence not reached.
=------------------------------------------------------------------------------=
