  python dir          : /home/p.schindler/.conda/envs/dft3_8/lib/python3.8/site-packages/espresso
  espresso dir        : /home/p.schindler/q-e_7-1/bin/
  pseudo dir          : /home/p.schindler/q-e_7-1/PSPs/Vanderbilt_USPP_PBE/
  ase-espresso py git : 4b1d7e3-git



     Program PWSCF v.7.1 starts on  8Aug2023 at  2: 6:57 

     This program is part of the open-source Quantum ESPRESSO suite
     for quantum simulation of materials; please cite
         "P. Giannozzi et al., J. Phys.:Condens. Matter 21 395502 (2009);
         "P. Giannozzi et al., J. Phys.:Condens. Matter 29 465901 (2017);
         "P. Giannozzi et al., J. Chem. Phys. 152 154105 (2020);
          URL http://www.quantum-espresso.org", 
     in publications or presentations arising from this work. More details at
     http://www.quantum-espresso.org/quote

     Parallel version (MPI), running on    20 processors

     MPI processes distributed on     1 nodes
     4729 MiB available memory on the printing compute node when the environment starts
 
     Reading input from pw.inp

     Current dimensions of program PWSCF are:
     Max number of different atomic species (ntypx) = 10
     Max number of k-points (npk) =  40000
     Max angular momentum in pseudopotentials (lmaxx) =  4
     Presently no symmetry can be used with electric field


     IMPORTANT: XC functional enforced from input :
     Exchange-correlation= PBE
                           (   1   4   3   4   0   0   0)
     Any further DFT definition will be discarded
     Please, verify this is what you really want

 
     R & G space division:  proc/nbgrp/npool/nimage =      20
     Subspace diagonalization in iterative solution of the eigenvalue problem:
     a serial algorithm will be used

 
     Parallelization info
     --------------------
     sticks:   dense  smooth     PW     G-vecs:    dense   smooth      PW
     Min         727     291     78               181416    45891    6341
     Max         729     292     79               181419    45896    6346
     Sum       14551    5823   1565              3628343   917855  126851
 
     Using Slab Decomposition
 


     bravais-lattice index     =            0
     lattice parameter (alat)  =      16.2159  a.u.
     unit-cell volume          =   13759.2597 (a.u.)^3
     number of atoms/cell      =           30
     number of atomic types    =            2
     number of electrons       =       324.00
     number of Kohn-Sham states=          192
     kinetic-energy cutoff     =      62.4738  Ry
     charge density cutoff     =     624.7385  Ry
     scf convergence threshold =      7.3E-07
     mixing beta               =       0.1500
     number of iterations used =           10  local-TF  mixing
     Exchange-correlation= PBE
                           (   1   4   3   4   0   0   0)

     celldm(1)=  16.215903  celldm(2)=   0.000000  celldm(3)=   0.000000
     celldm(4)=   0.000000  celldm(5)=   0.000000  celldm(6)=   0.000000

     crystal axes: (cart. coord. in units of alat)
               a(1) = (   0.000000   1.000000   0.000000 )  
               a(2) = (  -1.000000   0.000000   0.488054 )  
               a(3) = (   2.203850   0.000000   2.151198 )  

     reciprocal axes: (cart. coord. in units 2 pi/alat)
               b(1) = (  0.000000  1.000000  0.000000 )  
               b(2) = ( -0.666667 -0.000000  0.682984 )  
               b(3) = (  0.151250 -0.000000  0.309905 )  


     PseudoPot. # 1 for Ca read from file:
     /home/p.schindler/q-e_7-1/PSPs/Vanderbilt_USPP_PBE/Ca.UPF
     MD5 check sum: 403a4c14b9e4d4dfdc3024c9a3812218
     Pseudo is Ultrasoft + core correction, Zval = 10.0
     Generated by new atomic code, or converted to UPF format
     Using radial grid of  845 points,  6 beta functions with: 
                l(1) =   0
                l(2) =   0
                l(3) =   1
                l(4) =   1
                l(5) =   2
                l(6) =   2
     Q(r) pseudized with  8 coefficients,  rinner =    1.500   1.500   1.500
                                                       1.500   1.500

     PseudoPot. # 2 for Hg read from file:
     /home/p.schindler/q-e_7-1/PSPs/Vanderbilt_USPP_PBE/Hg.UPF
     MD5 check sum: 8f42caffe07f7fd9c0a564347f8c5498
     Pseudo is Ultrasoft + core correction, Zval = 12.0
     Generated by new atomic code, or converted to UPF format
     Using radial grid of  985 points,  6 beta functions with: 
                l(1) =   0
                l(2) =   0
                l(3) =   1
                l(4) =   1
                l(5) =   2
                l(6) =   2
     Q(r) pseudized with  8 coefficients,  rinner =    2.000   2.000   2.000
                                                       2.000   2.000

     atomic species   valence    mass     pseudopotential
        Ca1           10.00    40.07800     Ca( 1.00)
        Hg1           12.00   200.59200     Hg( 1.00)

     No symmetry found



   Cartesian axes

     site n.     atom                  positions (alat units)
         1           Ca1 tau(   1) = (   0.6254482   0.0000000   0.6105056  )
         2           Ca1 tau(   2) = (   0.6253482   0.0000000   1.0984625  )
         3           Ca1 tau(   3) = (   0.6253482   0.0000000   1.5865170  )
         4           Ca1 tau(   4) = (   0.1253482   0.5000000   1.0984625  )
         5           Ca1 tau(   5) = (   1.1253482   0.5000000   1.0984625  )
         6           Ca1 tau(   6) = (   1.1253482   0.5000000   1.5865170  )
         7           Ca1 tau(   7) = (   0.2811244   0.1557761   1.3424898  )
         8           Ca1 tau(   8) = (   1.2811244   0.1557761   1.3424898  )
         9           Ca1 tau(   9) = (   0.2811244   0.1557761   0.8544353  )
        10           Ca1 tau(  10) = (   0.7811244   0.3442239   0.8544353  )
        11           Ca1 tau(  11) = (   0.7811244   0.3442239   1.3424898  )
        12           Ca1 tau(  12) = (   0.7811244   0.3442239   1.8305443  )
        13           Ca1 tau(  13) = (   0.4695721   0.6557761   1.3424898  )
        14           Ca1 tau(  14) = (   0.4695721   0.6557761   1.8305443  )
        15           Ca1 tau(  15) = (   0.4695721   0.6557761   0.8544353  )
        16           Ca1 tau(  16) = (  -0.0304279   0.8442239   1.3424898  )
        17           Ca1 tau(  17) = (   0.9695721   0.8442239   1.3424898  )
        18           Ca1 tau(  18) = (   0.9695721   0.8442239   1.8305443  )
        19           Hg1 tau(  19) = (   0.4845102   0.3591620   1.0984625  )
        20           Hg1 tau(  20) = (   0.4845102   0.3591620   1.5865170  )
        21           Hg1 tau(  21) = (   1.4845102   0.3591620   1.5865170  )
        22           Hg1 tau(  22) = (  -0.0154898   0.1408380   1.0984625  )
        23           Hg1 tau(  23) = (   0.9845102   0.1408380   1.0984625  )
        24           Hg1 tau(  24) = (   0.9845102   0.1408380   1.5865170  )
        25           Hg1 tau(  25) = (   0.2661862   0.8591620   1.0984625  )
        26           Hg1 tau(  26) = (   0.2661862   0.8591620   1.5865170  )
        27           Hg1 tau(  27) = (   1.2661862   0.8591620   1.5865170  )
        28           Hg1 tau(  28) = (  -0.2338138   0.6408380   1.0984625  )
        29           Hg1 tau(  29) = (   0.7661862   0.6408380   1.0984625  )
        30           Hg1 tau(  30) = (   0.7661862   0.6408380   1.5865170  )

     number of k points=    20  Gaussian smearing, width (Ry)=  0.0147
                       cart. coord. in units 2pi/alat
        k(    1) = (   0.0000000   0.0000000   0.0000000), wk =   0.0555556
        k(    2) = (  -0.1111111  -0.0000000   0.1138306), wk =   0.1111111
        k(    3) = (  -0.2222222  -0.0000000   0.2276613), wk =   0.1111111
        k(    4) = (   0.3333333   0.0000000  -0.3414919), wk =   0.0555556
        k(    5) = (   0.0000000   0.1666667   0.0000000), wk =   0.1111111
        k(    6) = (  -0.1111111   0.1666667   0.1138306), wk =   0.1111111
        k(    7) = (  -0.2222222   0.1666667   0.2276613), wk =   0.1111111
        k(    8) = (   0.3333333   0.1666667  -0.3414919), wk =   0.1111111
        k(    9) = (   0.2222222   0.1666667  -0.2276613), wk =   0.1111111
        k(   10) = (   0.1111111   0.1666667  -0.1138306), wk =   0.1111111
        k(   11) = (   0.0000000   0.3333333   0.0000000), wk =   0.1111111
        k(   12) = (  -0.1111111   0.3333333   0.1138306), wk =   0.1111111
        k(   13) = (  -0.2222222   0.3333333   0.2276613), wk =   0.1111111
        k(   14) = (   0.3333333   0.3333333  -0.3414919), wk =   0.1111111
        k(   15) = (   0.2222222   0.3333333  -0.2276613), wk =   0.1111111
        k(   16) = (   0.1111111   0.3333333  -0.1138306), wk =   0.1111111
        k(   17) = (   0.0000000  -0.5000000   0.0000000), wk =   0.0555556
        k(   18) = (  -0.1111111  -0.5000000   0.1138306), wk =   0.1111111
        k(   19) = (  -0.2222222  -0.5000000   0.2276613), wk =   0.1111111
        k(   20) = (   0.3333333  -0.5000000  -0.3414919), wk =   0.0555556

     Dense  grid:  3628343 G-vectors     FFT dimensions: ( 135, 144, 400)

     Smooth grid:   917855 G-vectors     FFT dimensions: (  81,  96, 256)

     Estimated max dynamical RAM per process >       1.15 GB

     Estimated total dynamical RAM >      23.09 GB

     Initial potential from superposition of free atoms

     starting charge     323.9011, renormalised to     324.0000

     negative rho (up, down):  5.351E-03 0.000E+00
 
     Adding external electric field

     Computed dipole along edir(3) : 
        Dipole               -0.0257 Ry au,         -0.0652 Debye
        Dipole field         -0.0000 Ry au, 
 
        Potential amp.        0.0023 Ry
        Total length         48.6918 bohr
 
     Starting wfcs are  288 randomized atomic wfcs

     total cpu time spent up to now is       52.3 secs

     Self-consistent Calculation

     iteration #  1     ecut=    62.47 Ry     beta= 0.15
     Davidson diagonalization with overlap
     ethr =  1.00E-02,  avg # of iterations =  2.0

     negative rho (up, down):  2.087E-03 0.000E+00
 
     Adding external electric field

     Computed dipole along edir(3) : 
        Dipole               -0.0377 Ry au,         -0.0957 Debye
        Dipole field         -0.0000 Ry au, 
 
        Potential amp.        0.0033 Ry
        Total length         48.6918 bohr
 

     total cpu time spent up to now is      136.9 secs

     total energy              =   -2642.76902215 Ry
     estimated scf accuracy    <       3.69586183 Ry

     iteration #  2     ecut=    62.47 Ry     beta= 0.15
     Davidson diagonalization with overlap
     ethr =  1.14E-03,  avg # of iterations =  2.4

     negative rho (up, down):  2.423E-07 0.000E+00
 
     Adding external electric field

     Computed dipole along edir(3) : 
        Dipole               -0.1412 Ry au,         -0.3589 Debye
        Dipole field         -0.0001 Ry au, 
 
        Potential amp.        0.0126 Ry
        Total length         48.6918 bohr
 

     total cpu time spent up to now is      211.8 secs

     total energy              =   -2642.32462733 Ry
     estimated scf accuracy    <       3.27085969 Ry

     iteration #  3     ecut=    62.47 Ry     beta= 0.15
     Davidson diagonalization with overlap
     ethr =  1.01E-03,  avg # of iterations =  3.3
 
     Adding external electric field

     Computed dipole along edir(3) : 
        Dipole               -0.1669 Ry au,         -0.4242 Debye
        Dipole field         -0.0002 Ry au, 
 
        Potential amp.        0.0148 Ry
        Total length         48.6918 bohr
 

     total cpu time spent up to now is      288.3 secs

     total energy              =   -2642.56998602 Ry
     estimated scf accuracy    <       0.36977126 Ry

     iteration #  4     ecut=    62.47 Ry     beta= 0.15
     Davidson diagonalization with overlap
     ethr =  1.14E-04,  avg # of iterations =  8.3
 
     Adding external electric field

     Computed dipole along edir(3) : 
        Dipole               -0.1824 Ry au,         -0.4636 Debye
        Dipole field         -0.0002 Ry au, 
 
        Potential amp.        0.0162 Ry
        Total length         48.6918 bohr
 

     total cpu time spent up to now is      401.3 secs

     total energy              =   -2642.60690250 Ry
     estimated scf accuracy    <       0.16394885 Ry

     iteration #  5     ecut=    62.47 Ry     beta= 0.15
     Davidson diagonalization with overlap
     ethr =  5.06E-05,  avg # of iterations =  2.0
 
     Adding external electric field

     Computed dipole along edir(3) : 
        Dipole               -0.2959 Ry au,         -0.7522 Debye
        Dipole field         -0.0003 Ry au, 
 
        Potential amp.        0.0263 Ry
        Total length         48.6918 bohr
 

     total cpu time spent up to now is      473.6 secs

     total energy              =   -2642.58604361 Ry
     estimated scf accuracy    <       0.19825334 Ry

     iteration #  6     ecut=    62.47 Ry     beta= 0.15
     Davidson diagonalization with overlap
     ethr =  5.06E-05,  avg # of iterations =  2.0
 
     Adding external electric field

     Computed dipole along edir(3) : 
        Dipole               -0.3211 Ry au,         -0.8161 Debye
        Dipole field         -0.0003 Ry au, 
 
        Potential amp.        0.0286 Ry
        Total length         48.6918 bohr
 

     total cpu time spent up to now is      546.2 secs

     total energy              =   -2642.59273724 Ry
     estimated scf accuracy    <       0.05188663 Ry

     iteration #  7     ecut=    62.47 Ry     beta= 0.15
     Davidson diagonalization with overlap
     c_bands:  1 eigenvalues not converged
     ethr =  1.60E-05,  avg # of iterations = 13.8
 
     Adding external electric field

     Computed dipole along edir(3) : 
        Dipole               -0.3394 Ry au,         -0.8626 Debye
        Dipole field         -0.0003 Ry au, 
 
        Potential amp.        0.0302 Ry
        Total length         48.6918 bohr
 

     total cpu time spent up to now is      648.0 secs

     total energy              =   -2642.59050583 Ry
     estimated scf accuracy    <       0.04181891 Ry

     iteration #  8     ecut=    62.47 Ry     beta= 0.15
     Davidson diagonalization with overlap
     ethr =  1.29E-05,  avg # of iterations =  2.0
 
     Adding external electric field

     Computed dipole along edir(3) : 
        Dipole               -0.3957 Ry au,         -1.0059 Debye
        Dipole field         -0.0004 Ry au, 
 
        Potential amp.        0.0352 Ry
        Total length         48.6918 bohr
 

     total cpu time spent up to now is      720.3 secs

     total energy              =   -2642.59039283 Ry
     estimated scf accuracy    <       0.03689796 Ry

     iteration #  9     ecut=    62.47 Ry     beta= 0.15
     Davidson diagonalization with overlap
     ethr =  1.14E-05,  avg # of iterations =  2.4
 
     Adding external electric field

     Computed dipole along edir(3) : 
        Dipole               -0.3611 Ry au,         -0.9177 Debye
        Dipole field         -0.0003 Ry au, 
 
        Potential amp.        0.0321 Ry
        Total length         48.6918 bohr
 

     total cpu time spent up to now is      791.8 secs

     total energy              =   -2642.59068555 Ry
     estimated scf accuracy    <       0.02523074 Ry

     iteration # 10     ecut=    62.47 Ry     beta= 0.15
     Davidson diagonalization with overlap
     ethr =  7.79E-06,  avg # of iterations =  2.1
 
     Adding external electric field

     Computed dipole along edir(3) : 
        Dipole               -0.3390 Ry au,         -0.8617 Debye
        Dipole field         -0.0003 Ry au, 
 
        Potential amp.        0.0302 Ry
        Total length         48.6918 bohr
 

     total cpu time spent up to now is      864.4 secs

     total energy              =   -2642.59181508 Ry
     estimated scf accuracy    <       0.03114673 Ry

     iteration # 11     ecut=    62.47 Ry     beta= 0.15
     Davidson diagonalization with overlap
     ethr =  7.79E-06,  avg # of iterations =  1.0
 
     Adding external electric field

     Computed dipole along edir(3) : 
        Dipole               -0.2997 Ry au,         -0.7616 Debye
        Dipole field         -0.0003 Ry au, 
 
        Potential amp.        0.0267 Ry
        Total length         48.6918 bohr
 

     total cpu time spent up to now is      929.6 secs

     total energy              =   -2642.59242852 Ry
     estimated scf accuracy    <       0.02483814 Ry

     iteration # 12     ecut=    62.47 Ry     beta= 0.15
     Davidson diagonalization with overlap
     ethr =  7.67E-06,  avg # of iterations =  1.0
 
     Adding external electric field

     Computed dipole along edir(3) : 
        Dipole               -0.1912 Ry au,         -0.4859 Debye
        Dipole field         -0.0002 Ry au, 
 
        Potential amp.        0.0170 Ry
        Total length         48.6918 bohr
 

     total cpu time spent up to now is      994.8 secs

     total energy              =   -2642.59301814 Ry
     estimated scf accuracy    <       0.02776343 Ry

     iteration # 13     ecut=    62.47 Ry     beta= 0.15
     Davidson diagonalization with overlap
     ethr =  7.67E-06,  avg # of iterations =  1.0
 
     Adding external electric field

     Computed dipole along edir(3) : 
        Dipole               -0.1653 Ry au,         -0.4201 Debye
        Dipole field         -0.0002 Ry au, 
 
        Potential amp.        0.0147 Ry
        Total length         48.6918 bohr
 

     total cpu time spent up to now is     1059.9 secs

     total energy              =   -2642.58734874 Ry
     estimated scf accuracy    <       0.03077918 Ry

     iteration # 14     ecut=    62.47 Ry     beta= 0.15
     Davidson diagonalization with overlap
     c_bands:  3 eigenvalues not converged
     ethr =  7.67E-06,  avg # of iterations =  7.7
 
     Adding external electric field

     Computed dipole along edir(3) : 
        Dipole               -0.0405 Ry au,         -0.1030 Debye
        Dipole field         -0.0000 Ry au, 
 
        Potential amp.        0.0036 Ry
        Total length         48.6918 bohr
 

     total cpu time spent up to now is     1152.0 secs

     total energy              =   -2642.58939180 Ry
     estimated scf accuracy    <       0.00506360 Ry

     iteration # 15     ecut=    62.47 Ry     beta= 0.15
     Davidson diagonalization with overlap
     c_bands:  1 eigenvalues not converged
     ethr =  1.56E-06,  avg # of iterations = 11.5

     negative rho (up, down):  5.014E-04 0.000E+00
 
     Adding external electric field

     Computed dipole along edir(3) : 
        Dipole               -0.0468 Ry au,         -0.1190 Debye
        Dipole field         -0.0000 Ry au, 
 
        Potential amp.        0.0042 Ry
        Total length         48.6918 bohr
 

     total cpu time spent up to now is     1269.5 secs

     total energy              =   -2642.59043870 Ry
     estimated scf accuracy    <       0.00169609 Ry

     iteration # 16     ecut=    62.47 Ry     beta= 0.15
     Davidson diagonalization with overlap
     ethr =  5.23E-07,  avg # of iterations =  2.2
 
     Adding external electric field

     Computed dipole along edir(3) : 
        Dipole               -0.0946 Ry au,         -0.2404 Debye
        Dipole field         -0.0001 Ry au, 
 
        Potential amp.        0.0084 Ry
        Total length         48.6918 bohr
 

     total cpu time spent up to now is     1350.0 secs

     total energy              =   -2642.59043799 Ry
     estimated scf accuracy    <       0.00091987 Ry

     iteration # 17     ecut=    62.47 Ry     beta= 0.15
     Davidson diagonalization with overlap
     ethr =  2.84E-07,  avg # of iterations =  2.0
 
     Adding external electric field

     Computed dipole along edir(3) : 
        Dipole               -0.1151 Ry au,         -0.2927 Debye
        Dipole field         -0.0001 Ry au, 
 
        Potential amp.        0.0102 Ry
        Total length         48.6918 bohr
 

     total cpu time spent up to now is     1422.7 secs

     total energy              =   -2642.59060324 Ry
     estimated scf accuracy    <       0.00025516 Ry

     iteration # 18     ecut=    62.47 Ry     beta= 0.15
     Davidson diagonalization with overlap
     ethr =  7.88E-08,  avg # of iterations =  4.6

     negative rho (up, down):  3.401E-05 0.000E+00
 
     Adding external electric field

     Computed dipole along edir(3) : 
        Dipole               -0.1213 Ry au,         -0.3082 Debye
        Dipole field         -0.0001 Ry au, 
 
        Potential amp.        0.0108 Ry
        Total length         48.6918 bohr
 

     total cpu time spent up to now is     1513.6 secs

     total energy              =   -2642.59077184 Ry
     estimated scf accuracy    <       0.00031351 Ry

     iteration # 19     ecut=    62.47 Ry     beta= 0.15
     Davidson diagonalization with overlap
     ethr =  7.88E-08,  avg # of iterations =  4.0

     negative rho (up, down):  2.698E-08 0.000E+00
 
     Adding external electric field

     Computed dipole along edir(3) : 
        Dipole               -0.1332 Ry au,         -0.3385 Debye
        Dipole field         -0.0001 Ry au, 
 
        Potential amp.        0.0118 Ry
        Total length         48.6918 bohr
 

     total cpu time spent up to now is     1601.3 secs

     total energy              =   -2642.59084390 Ry
     estimated scf accuracy    <       0.00002426 Ry

     iteration # 20     ecut=    62.47 Ry     beta= 0.15
     Davidson diagonalization with overlap
     ethr =  7.49E-09,  avg # of iterations =  5.7
 
     Adding external electric field

     Computed dipole along edir(3) : 
        Dipole               -0.1291 Ry au,         -0.3281 Debye
        Dipole field         -0.0001 Ry au, 
 
        Potential amp.        0.0115 Ry
        Total length         48.6918 bohr
 

     total cpu time spent up to now is     1699.4 secs

     total energy              =   -2642.59087147 Ry
     estimated scf accuracy    <       0.00003893 Ry

     iteration # 21     ecut=    62.47 Ry     beta= 0.15
     Davidson diagonalization with overlap
     ethr =  7.49E-09,  avg # of iterations =  3.8

     negative rho (up, down):  2.797E-05 0.000E+00
 
     Adding external electric field

     Computed dipole along edir(3) : 
        Dipole               -0.1433 Ry au,         -0.3643 Debye
        Dipole field         -0.0001 Ry au, 
 
        Potential amp.        0.0127 Ry
        Total length         48.6918 bohr
 

     total cpu time spent up to now is     1792.9 secs

     total energy              =   -2642.59090236 Ry
     estimated scf accuracy    <       0.00000889 Ry

     iteration # 22     ecut=    62.47 Ry     beta= 0.15
     Davidson diagonalization with overlap
     ethr =  2.74E-09,  avg # of iterations =  4.0

     negative rho (up, down):  1.969E-07 0.000E+00
 
     Adding external electric field

     Computed dipole along edir(3) : 
        Dipole               -0.1437 Ry au,         -0.3652 Debye
        Dipole field         -0.0001 Ry au, 
 
        Potential amp.        0.0128 Ry
        Total length         48.6918 bohr
 

     total cpu time spent up to now is     1888.0 secs

     total energy              =   -2642.59090598 Ry
     estimated scf accuracy    <       0.00000412 Ry

     iteration # 23     ecut=    62.47 Ry     beta= 0.15
     Davidson diagonalization with overlap
     ethr =  1.27E-09,  avg # of iterations =  2.1

     negative rho (up, down):  8.078E-05 0.000E+00
 
     Adding external electric field

     Computed dipole along edir(3) : 
        Dipole               -0.1401 Ry au,         -0.3561 Debye
        Dipole field         -0.0001 Ry au, 
 
        Potential amp.        0.0125 Ry
        Total length         48.6918 bohr
 

     total cpu time spent up to now is     1976.6 secs

     total energy              =   -2642.59090700 Ry
     estimated scf accuracy    <       0.00000426 Ry

     iteration # 24     ecut=    62.47 Ry     beta= 0.15
     Davidson diagonalization with overlap
     ethr =  1.27E-09,  avg # of iterations =  2.1

     negative rho (up, down):  8.664E-08 0.000E+00
 
     Adding external electric field

     Computed dipole along edir(3) : 
        Dipole               -0.1277 Ry au,         -0.3245 Debye
        Dipole field         -0.0001 Ry au, 
 
        Potential amp.        0.0114 Ry
        Total length         48.6918 bohr
 

     total cpu time spent up to now is     2056.5 secs

     End of self-consistent calculation

          k = 0.0000 0.0000 0.0000 (114747 PWs)   bands (ev):

   -40.7838 -40.7749 -40.5485 -40.3865 -40.2296 -40.1318 -40.1084 -39.9874
   -39.8895 -39.8260 -39.8224 -39.8138 -39.7801 -39.7141 -39.7085 -39.6784
   -39.6572 -39.6447 -21.8035 -21.7742 -21.7505 -21.7405 -21.7247 -21.7172
   -21.5665 -21.5142 -21.4935 -21.3987 -21.3646 -21.3473 -21.2513 -21.2060
   -21.1967 -21.1649 -21.1493 -21.1075 -21.0987 -21.0747 -21.0705 -21.0024
   -20.9881 -20.9540 -20.9264 -20.8790 -20.8678 -20.8504 -20.8418 -20.8359
   -20.8327 -20.8264 -20.8198 -20.8064 -20.8007 -20.7963 -20.7906 -20.7786
   -20.7634 -20.7340 -20.7314 -20.7057 -20.7049 -20.7018 -20.6948 -20.6886
   -20.6821 -20.6695 -20.6656 -20.6592 -20.6541 -20.6429 -20.6319 -20.6236
    -5.3718  -5.3547  -5.3432  -5.3190  -5.3029  -5.2940  -5.2903  -5.2709
    -5.2627  -5.2561  -5.2494  -5.2488  -5.2313  -5.2230  -5.2122  -5.2024
    -5.1939  -5.1855  -5.1795  -5.1746  -5.1713  -5.1629  -5.1607  -5.1583
    -5.1571  -5.1528  -5.1434  -5.1382  -5.1370  -5.1312  -5.1229  -5.1199
    -5.1049  -5.1038  -5.0993  -5.0936  -5.0887  -5.0843  -5.0831  -5.0779
    -5.0739  -5.0703  -5.0631  -5.0608  -5.0485  -5.0445  -5.0425  -5.0378
    -5.0335  -5.0237  -5.0178  -4.9923  -4.9848  -4.9610  -4.9500  -4.9475
    -4.9263  -4.8731  -4.8554  -4.8085  -4.4435  -3.8154  -3.3944  -3.1679
    -3.0947  -2.7681  -2.7075  -2.6216  -2.4096  -2.2555  -2.1121  -1.9428
    -0.0703   0.1776   0.2679   0.3854   0.4522   0.6548   0.6999   0.8144
     1.0152   1.1074   1.1876   1.1980   1.3828   1.5888   1.6332   1.6857
     1.8755   2.0036   2.1611   2.2551   2.2926   2.3501   2.4624   2.4929
     2.5616   2.5875   2.6093   2.6972   2.7115   2.7704   2.9290   2.9727
     3.0228   3.0562   3.1030   3.2212   3.2377   3.2930   3.3117   3.3595
     3.3810   3.4066   3.4350   3.4663   3.4831   3.5187   3.5513   3.5945

          k =-0.1111-0.0000 0.1138 (114770 PWs)   bands (ev):

   -40.7838 -40.7749 -40.5485 -40.3865 -40.2296 -40.1318 -40.1084 -39.9874
   -39.8895 -39.8260 -39.8224 -39.8138 -39.7801 -39.7141 -39.7085 -39.6784
   -39.6572 -39.6447 -21.8035 -21.7742 -21.7505 -21.7405 -21.7247 -21.7172
   -21.5665 -21.5142 -21.4935 -21.3987 -21.3646 -21.3473 -21.2513 -21.2060
   -21.1966 -21.1649 -21.1493 -21.1074 -21.0987 -21.0747 -21.0705 -21.0024
   -20.9881 -20.9541 -20.9264 -20.8789 -20.8678 -20.8503 -20.8418 -20.8359
   -20.8327 -20.8264 -20.8197 -20.8065 -20.8006 -20.7963 -20.7908 -20.7787
   -20.7633 -20.7341 -20.7311 -20.7064 -20.7049 -20.7014 -20.6947 -20.6887
   -20.6820 -20.6700 -20.6652 -20.6589 -20.6542 -20.6433 -20.6315 -20.6238
    -5.3727  -5.3571  -5.3439  -5.3253  -5.3014  -5.2950  -5.2820  -5.2694
    -5.2634  -5.2539  -5.2512  -5.2435  -5.2296  -5.2218  -5.2125  -5.2027
    -5.1943  -5.1873  -5.1814  -5.1763  -5.1714  -5.1644  -5.1622  -5.1584
    -5.1575  -5.1530  -5.1473  -5.1377  -5.1358  -5.1312  -5.1237  -5.1186
    -5.1049  -5.1022  -5.1000  -5.0933  -5.0899  -5.0867  -5.0788  -5.0773
    -5.0733  -5.0706  -5.0626  -5.0562  -5.0487  -5.0456  -5.0427  -5.0386
    -5.0327  -5.0226  -5.0176  -4.9927  -4.9848  -4.9607  -4.9508  -4.9466
    -4.9262  -4.8744  -4.8557  -4.8091  -4.4014  -3.7797  -3.5502  -3.2007
    -3.0601  -2.7547  -2.6802  -2.5962  -2.4169  -2.2439  -2.1134  -1.9302
    -0.1028   0.0415   0.2561   0.3085   0.4260   0.6281   0.8561   0.8819
     1.0148   1.1314   1.2571   1.3252   1.4752   1.5360   1.6617   1.7679
     1.9014   2.0105   2.0445   2.2019   2.3024   2.3649   2.3896   2.4979
     2.5154   2.5708   2.6351   2.6846   2.7496   2.8093   2.8756   2.9503
     2.9673   3.0326   3.1037   3.1695   3.2006   3.2570   3.3000   3.3478
     3.3775   3.3919   3.4110   3.4569   3.5236   3.5521   3.5838   3.6175

          k =-0.2222-0.0000 0.2277 (114695 PWs)   bands (ev):

   -40.7838 -40.7749 -40.5485 -40.3865 -40.2296 -40.1318 -40.1084 -39.9874
   -39.8895 -39.8260 -39.8224 -39.8138 -39.7801 -39.7141 -39.7085 -39.6784
   -39.6572 -39.6447 -21.8035 -21.7742 -21.7505 -21.7405 -21.7247 -21.7172
   -21.5665 -21.5142 -21.4935 -21.3987 -21.3645 -21.3473 -21.2513 -21.2060
   -21.1965 -21.1649 -21.1493 -21.1074 -21.0987 -21.0748 -21.0705 -21.0025
   -20.9880 -20.9542 -20.9265 -20.8787 -20.8678 -20.8503 -20.8420 -20.8360
   -20.8325 -20.8263 -20.8195 -20.8065 -20.8004 -20.7962 -20.7912 -20.7789
   -20.7633 -20.7342 -20.7306 -20.7072 -20.7050 -20.7011 -20.6942 -20.6890
   -20.6817 -20.6708 -20.6646 -20.6586 -20.6544 -20.6441 -20.6307 -20.6242
    -5.3746  -5.3611  -5.3460  -5.3336  -5.2995  -5.2949  -5.2701  -5.2664
    -5.2618  -5.2521  -5.2491  -5.2376  -5.2261  -5.2214  -5.2112  -5.2047
    -5.1960  -5.1920  -5.1863  -5.1778  -5.1713  -5.1677  -5.1637  -5.1592
    -5.1583  -5.1538  -5.1506  -5.1391  -5.1351  -5.1308  -5.1243  -5.1193
    -5.1053  -5.1031  -5.1005  -5.0945  -5.0879  -5.0839  -5.0788  -5.0728
    -5.0706  -5.0678  -5.0616  -5.0528  -5.0489  -5.0462  -5.0422  -5.0398
    -5.0343  -5.0205  -5.0154  -4.9933  -4.9857  -4.9602  -4.9519  -4.9451
    -4.9261  -4.8771  -4.8560  -4.8103  -4.2764  -3.8202  -3.6740  -3.3405
    -3.0218  -2.7029  -2.6458  -2.5511  -2.4450  -2.2106  -2.1231  -1.9052
    -0.1806  -0.0904   0.0176   0.3098   0.5996   0.6749   0.7056   0.9642
     1.2282   1.2834   1.3266   1.4755   1.5977   1.6122   1.6856   1.7686
     1.8163   1.9760   2.1003   2.2240   2.2773   2.3399   2.3798   2.4275
     2.4426   2.5185   2.5990   2.7160   2.7477   2.7888   2.8435   2.8765
     2.9299   2.9945   3.0528   3.0768   3.1402   3.2071   3.2709   3.3203
     3.3683   3.4065   3.4390   3.4912   3.5355   3.5820   3.5941   3.6639

          k = 0.3333 0.0000-0.3415 (114686 PWs)   bands (ev):

   -40.7838 -40.7749 -40.5485 -40.3865 -40.2296 -40.1318 -40.1084 -39.9874
   -39.8895 -39.8260 -39.8224 -39.8138 -39.7801 -39.7141 -39.7085 -39.6784
   -39.6572 -39.6447 -21.8035 -21.7742 -21.7505 -21.7405 -21.7247 -21.7172
   -21.5665 -21.5142 -21.4935 -21.3987 -21.3645 -21.3473 -21.2513 -21.2061
   -21.1965 -21.1649 -21.1493 -21.1074 -21.0987 -21.0748 -21.0705 -21.0025
   -20.9880 -20.9542 -20.9265 -20.8786 -20.8678 -20.8503 -20.8421 -20.8360
   -20.8324 -20.8264 -20.8194 -20.8065 -20.8004 -20.7961 -20.7914 -20.7790
   -20.7632 -20.7343 -20.7304 -20.7076 -20.7051 -20.7011 -20.6938 -20.6892
   -20.6816 -20.6711 -20.6643 -20.6584 -20.6544 -20.6444 -20.6302 -20.6244
    -5.3756  -5.3629  -5.3472  -5.3368  -5.2998  -5.2935  -5.2676  -5.2638
    -5.2560  -5.2541  -5.2447  -5.2376  -5.2247  -5.2219  -5.2090  -5.2078
    -5.1974  -5.1949  -5.1879  -5.1779  -5.1711  -5.1689  -5.1647  -5.1597
    -5.1591  -5.1550  -5.1488  -5.1429  -5.1350  -5.1299  -5.1246  -5.1203
    -5.1059  -5.1033  -5.1006  -5.0944  -5.0859  -5.0816  -5.0799  -5.0711
    -5.0697  -5.0641  -5.0597  -5.0561  -5.0497  -5.0459  -5.0420  -5.0392
    -5.0327  -5.0233  -5.0120  -4.9937  -4.9868  -4.9599  -4.9525  -4.9442
    -4.9261  -4.8785  -4.8561  -4.8108  -4.0870  -4.0641  -3.5366  -3.4992
    -3.0087  -2.6730  -2.6309  -2.5252  -2.4729  -2.1789  -2.1429  -1.8925
    -0.1827  -0.1465  -0.1146   0.3610   0.5273   0.6569   0.9595   1.0101
     1.1908   1.2502   1.3287   1.4402   1.5436   1.6996   1.8294   1.8638
     1.9653   2.0345   2.0768   2.1023   2.2179   2.2692   2.3595   2.4093
     2.4501   2.5211   2.6133   2.6726   2.7145   2.7741   2.8146   2.8614
     2.8928   2.9920   3.0244   3.0922   3.1243   3.1637   3.2477   3.3263
     3.3942   3.4080   3.4524   3.4756   3.5340   3.5661   3.6338   3.6818

          k = 0.0000 0.1667 0.0000 (114813 PWs)   bands (ev):

   -40.7838 -40.7749 -40.5485 -40.3865 -40.2296 -40.1318 -40.1084 -39.9874
   -39.8895 -39.8260 -39.8224 -39.8138 -39.7801 -39.7141 -39.7085 -39.6784
   -39.6572 -39.6447 -21.8035 -21.7742 -21.7505 -21.7405 -21.7247 -21.7172
   -21.5665 -21.5142 -21.4935 -21.3987 -21.3646 -21.3473 -21.2513 -21.2060
   -21.1967 -21.1649 -21.1493 -21.1074 -21.0987 -21.0747 -21.0705 -21.0024
   -20.9881 -20.9540 -20.9264 -20.8790 -20.8678 -20.8503 -20.8418 -20.8360
   -20.8327 -20.8263 -20.8199 -20.8065 -20.8006 -20.7962 -20.7908 -20.7786
   -20.7633 -20.7339 -20.7314 -20.7057 -20.7051 -20.7015 -20.6945 -20.6889
   -20.6821 -20.6696 -20.6657 -20.6589 -20.6543 -20.6427 -20.6322 -20.6236
    -5.3727  -5.3552  -5.3460  -5.3188  -5.3026  -5.2972  -5.2889  -5.2688
    -5.2639  -5.2567  -5.2516  -5.2426  -5.2324  -5.2236  -5.2142  -5.2036
    -5.1944  -5.1884  -5.1824  -5.1772  -5.1702  -5.1659  -5.1615  -5.1566
    -5.1560  -5.1518  -5.1460  -5.1391  -5.1362  -5.1317  -5.1238  -5.1195
    -5.1059  -5.1009  -5.0999  -5.0924  -5.0891  -5.0801  -5.0784  -5.0752
    -5.0721  -5.0698  -5.0627  -5.0553  -5.0485  -5.0448  -5.0435  -5.0385
    -5.0322  -5.0263  -5.0184  -4.9910  -4.9846  -4.9600  -4.9491  -4.9465
    -4.9261  -4.8738  -4.8554  -4.8087  -4.3929  -3.7713  -3.4829  -3.1824
    -3.0691  -2.7892  -2.6970  -2.5947  -2.4731  -2.2590  -2.1655  -1.9864
    -0.0497   0.2375   0.2628   0.3203   0.3712   0.5863   0.8120   0.9210
     0.9850   1.1970   1.2393   1.3713   1.4519   1.5584   1.6338   1.7474
     1.9102   1.9618   2.1514   2.2671   2.3489   2.3810   2.4244   2.4689
     2.5478   2.5843   2.6146   2.6504   2.7066   2.7592   2.8715   2.9454
     3.0039   3.0718   3.1257   3.1563   3.1966   3.2712   3.2866   3.3255
     3.3716   3.3840   3.4201   3.4434   3.4642   3.5192   3.5398   3.5738

          k =-0.1111 0.1667 0.1138 (114796 PWs)   bands (ev):

   -40.7838 -40.7749 -40.5485 -40.3865 -40.2296 -40.1318 -40.1084 -39.9874
   -39.8895 -39.8260 -39.8224 -39.8138 -39.7801 -39.7141 -39.7085 -39.6784
   -39.6572 -39.6447 -21.8035 -21.7742 -21.7505 -21.7405 -21.7247 -21.7172
   -21.5665 -21.5142 -21.4935 -21.3987 -21.3646 -21.3473 -21.2513 -21.2060
   -21.1966 -21.1649 -21.1493 -21.1074 -21.0987 -21.0747 -21.0705 -21.0024
   -20.9880 -20.9541 -20.9264 -20.8789 -20.8678 -20.8502 -20.8419 -20.8360
   -20.8327 -20.8262 -20.8197 -20.8063 -20.8009 -20.7963 -20.7907 -20.7787
   -20.7633 -20.7339 -20.7311 -20.7066 -20.7050 -20.7010 -20.6944 -20.6892
   -20.6819 -20.6705 -20.6653 -20.6586 -20.6542 -20.6429 -20.6319 -20.6239
    -5.3719  -5.3572  -5.3492  -5.3233  -5.3017  -5.2965  -5.2826  -5.2695
    -5.2630  -5.2536  -5.2490  -5.2434  -5.2316  -5.2236  -5.2152  -5.2041
    -5.1928  -5.1913  -5.1840  -5.1770  -5.1735  -5.1662  -5.1628  -5.1572
    -5.1558  -5.1508  -5.1448  -5.1389  -5.1353  -5.1316  -5.1236  -5.1178
    -5.1060  -5.1009  -5.0989  -5.0939  -5.0876  -5.0814  -5.0786  -5.0763
    -5.0732  -5.0695  -5.0624  -5.0556  -5.0484  -5.0444  -5.0420  -5.0375
    -5.0365  -5.0244  -5.0141  -4.9917  -4.9857  -4.9587  -4.9504  -4.9447
    -4.9278  -4.8728  -4.8558  -4.8097  -4.3516  -3.7378  -3.5664  -3.2323
    -3.0480  -2.8135  -2.7469  -2.5404  -2.4624  -2.2402  -2.1437  -1.9848
    -0.0369   0.0487   0.1526   0.3418   0.5623   0.6773   0.7081   0.9222
     1.0570   1.1691   1.3356   1.3835   1.4786   1.6251   1.6718   1.8023
     1.8954   2.0145   2.0897   2.2131   2.2926   2.3460   2.4221   2.4510
     2.5050   2.5631   2.6598   2.6869   2.7429   2.7902   2.8220   2.8787
     2.9376   3.0445   3.0884   3.1141   3.2010   3.2438   3.2810   3.3512
     3.3774   3.4119   3.4423   3.4715   3.4891   3.5269   3.5798   3.6100

          k =-0.2222 0.1667 0.2277 (114706 PWs)   bands (ev):

   -40.7838 -40.7749 -40.5485 -40.3865 -40.2296 -40.1318 -40.1084 -39.9874
   -39.8895 -39.8260 -39.8224 -39.8138 -39.7801 -39.7141 -39.7085 -39.6784
   -39.6572 -39.6447 -21.8035 -21.7742 -21.7505 -21.7405 -21.7247 -21.7172
   -21.5665 -21.5142 -21.4935 -21.3987 -21.3645 -21.3473 -21.2513 -21.2061
   -21.1965 -21.1649 -21.1493 -21.1074 -21.0987 -21.0748 -21.0705 -21.0024
   -20.9880 -20.9542 -20.9265 -20.8787 -20.8678 -20.8502 -20.8420 -20.8361
   -20.8325 -20.8261 -20.8195 -20.8065 -20.8007 -20.7963 -20.7909 -20.7788
   -20.7633 -20.7341 -20.7306 -20.7074 -20.7050 -20.7009 -20.6937 -20.6894
   -20.6817 -20.6714 -20.6648 -20.6583 -20.6542 -20.6436 -20.6310 -20.6243
    -5.3732  -5.3607  -5.3498  -5.3304  -5.3015  -5.2957  -5.2743  -5.2674
    -5.2587  -5.2547  -5.2502  -5.2401  -5.2265  -5.2219  -5.2145  -5.2048
    -5.1950  -5.1928  -5.1864  -5.1815  -5.1713  -5.1662  -5.1636  -5.1592
    -5.1557  -5.1516  -5.1476  -5.1406  -5.1352  -5.1303  -5.1238  -5.1169
    -5.1061  -5.1021  -5.0999  -5.0934  -5.0885  -5.0827  -5.0774  -5.0746
    -5.0714  -5.0696  -5.0615  -5.0531  -5.0480  -5.0452  -5.0420  -5.0406
    -5.0375  -5.0194  -5.0106  -4.9923  -4.9866  -4.9584  -4.9513  -4.9437
    -4.9279  -4.8746  -4.8559  -4.8104  -4.2291  -3.7898  -3.6385  -3.3341
    -3.0335  -2.8047  -2.7254  -2.5620  -2.4629  -2.2250  -2.1313  -1.9541
    -0.0857  -0.0664   0.0743   0.3360   0.5729   0.6923   0.8876   0.9792
     1.0956   1.2319   1.3549   1.4447   1.5582   1.6336   1.7116   1.8428
     1.9388   2.0155   2.1423   2.1897   2.2504   2.3355   2.3659   2.4091
     2.4817   2.5526   2.6032   2.6467   2.7302   2.8105   2.8393   2.8585
     2.8899   2.9849   3.0215   3.0513   3.1414   3.2377   3.2806   3.3167
     3.3511   3.3925   3.4508   3.5110   3.5423   3.5903   3.6232   3.6624

          k = 0.3333 0.1667-0.3415 (114726 PWs)   bands (ev):

   -40.7838 -40.7749 -40.5485 -40.3865 -40.2296 -40.1318 -40.1084 -39.9874
   -39.8895 -39.8260 -39.8224 -39.8138 -39.7801 -39.7141 -39.7085 -39.6784
   -39.6572 -39.6447 -21.8035 -21.7742 -21.7505 -21.7405 -21.7247 -21.7172
   -21.5665 -21.5142 -21.4935 -21.3987 -21.3645 -21.3473 -21.2513 -21.2061
   -21.1965 -21.1649 -21.1493 -21.1074 -21.0987 -21.0748 -21.0705 -21.0024
   -20.9879 -20.9542 -20.9265 -20.8786 -20.8678 -20.8502 -20.8420 -20.8362
   -20.8323 -20.8262 -20.8195 -20.8070 -20.8002 -20.7961 -20.7913 -20.7788
   -20.7632 -20.7343 -20.7305 -20.7077 -20.7050 -20.7011 -20.6933 -20.6891
   -20.6816 -20.6716 -20.6645 -20.6583 -20.6543 -20.6441 -20.6305 -20.6245
    -5.3755  -5.3615  -5.3479  -5.3334  -5.3014  -5.2967  -5.2710  -5.2649
    -5.2614  -5.2559  -5.2475  -5.2376  -5.2251  -5.2185  -5.2113  -5.2054
    -5.1989  -5.1940  -5.1879  -5.1823  -5.1682  -5.1667  -5.1636  -5.1609
    -5.1575  -5.1523  -5.1489  -5.1421  -5.1350  -5.1296  -5.1241  -5.1183
    -5.1069  -5.1034  -5.1018  -5.0937  -5.0875  -5.0822  -5.0782  -5.0725
    -5.0695  -5.0651  -5.0592  -5.0553  -5.0502  -5.0464  -5.0422  -5.0384
    -5.0367  -5.0198  -5.0095  -4.9920  -4.9864  -4.9599  -4.9506  -4.9441
    -4.9262  -4.8774  -4.8556  -4.8103  -4.0455  -4.0204  -3.5096  -3.4738
    -3.0211  -2.7622  -2.6878  -2.6016  -2.4882  -2.2215  -2.1538  -1.9224
    -0.1243  -0.0459  -0.0263   0.3903   0.5424   0.7156   0.9929   1.0248
     1.0803   1.2771   1.3395   1.4929   1.5351   1.6631   1.7540   1.8823
     1.9267   2.0228   2.0646   2.1758   2.2338   2.3072   2.3708   2.3992
     2.5098   2.5636   2.6221   2.6623   2.7126   2.7742   2.7904   2.8729
     2.9179   2.9615   3.0310   3.0522   3.1201   3.2036   3.2590   3.3322
     3.3618   3.4014   3.4488   3.4805   3.5332   3.5817   3.6129   3.6767

          k = 0.2222 0.1667-0.2277 (114706 PWs)   bands (ev):

   -40.7838 -40.7749 -40.5485 -40.3865 -40.2296 -40.1318 -40.1084 -39.9874
   -39.8895 -39.8260 -39.8224 -39.8138 -39.7801 -39.7141 -39.7085 -39.6784
   -39.6572 -39.6447 -21.8035 -21.7742 -21.7505 -21.7405 -21.7247 -21.7172
   -21.5665 -21.5142 -21.4935 -21.3987 -21.3645 -21.3473 -21.2513 -21.2061
   -21.1965 -21.1649 -21.1493 -21.1074 -21.0987 -21.0748 -21.0705 -21.0024
   -20.9880 -20.9542 -20.9264 -20.8787 -20.8678 -20.8502 -20.8419 -20.8361
   -20.8324 -20.8263 -20.8197 -20.8072 -20.7998 -20.7960 -20.7914 -20.7786
   -20.7632 -20.7343 -20.7308 -20.7073 -20.7049 -20.7014 -20.6936 -20.6887
   -20.6819 -20.6708 -20.6648 -20.6584 -20.6545 -20.6439 -20.6309 -20.6242
    -5.3762  -5.3597  -5.3441  -5.3307  -5.3038  -5.2970  -5.2735  -5.2686
    -5.2645  -5.2541  -5.2492  -5.2367  -5.2273  -5.2174  -5.2116  -5.2039
    -5.1997  -5.1919  -5.1862  -5.1807  -5.1693  -5.1654  -5.1631  -5.1603
    -5.1578  -5.1534  -5.1509  -5.1373  -5.1346  -5.1307  -5.1250  -5.1183
    -5.1073  -5.1048  -5.1014  -5.0948  -5.0885  -5.0816  -5.0779  -5.0720
    -5.0692  -5.0645  -5.0604  -5.0542  -5.0502  -5.0469  -5.0427  -5.0388
    -5.0347  -5.0210  -5.0139  -4.9912  -4.9843  -4.9612  -4.9499  -4.9451
    -4.9244  -4.8783  -4.8554  -4.8093  -4.2264  -3.7996  -3.6337  -3.3493
    -3.0338  -2.7444  -2.6620  -2.6091  -2.4826  -2.2704  -2.1667  -1.9239
    -0.1069  -0.0264   0.0682   0.3639   0.5337   0.7520   0.9047   0.9646
     1.0726   1.1974   1.3260   1.4389   1.5689   1.6797   1.7672   1.8223
     1.9284   1.9910   2.0754   2.1712   2.2183   2.3335   2.3710   2.4422
     2.5002   2.5373   2.6073   2.7014   2.7314   2.8026   2.8411   2.9147
     2.9435   2.9705   3.0556   3.0972   3.1372   3.2093   3.2697   3.3013
     3.3667   3.3864   3.4249   3.4947   3.5172   3.5819   3.5906   3.6541

          k = 0.1111 0.1667-0.1138 (114796 PWs)   bands (ev):

   -40.7838 -40.7749 -40.5485 -40.3865 -40.2296 -40.1318 -40.1084 -39.9874
   -39.8895 -39.8260 -39.8224 -39.8138 -39.7801 -39.7141 -39.7085 -39.6784
   -39.6572 -39.6447 -21.8035 -21.7742 -21.7505 -21.7405 -21.7247 -21.7172
   -21.5665 -21.5142 -21.4935 -21.3987 -21.3646 -21.3473 -21.2513 -21.2060
   -21.1966 -21.1649 -21.1493 -21.1074 -21.0987 -21.0747 -21.0705 -21.0024
   -20.9881 -20.9541 -20.9264 -20.8789 -20.8678 -20.8503 -20.8418 -20.8361
   -20.8326 -20.8263 -20.8199 -20.8069 -20.8001 -20.7961 -20.7911 -20.7785
   -20.7633 -20.7341 -20.7313 -20.7061 -20.7051 -20.7017 -20.6941 -20.6886
   -20.6821 -20.6698 -20.6654 -20.6588 -20.6545 -20.6432 -20.6318 -20.6237
    -5.3748  -5.3569  -5.3426  -5.3238  -5.3052  -5.2967  -5.2822  -5.2705
    -5.2620  -5.2579  -5.2521  -5.2393  -5.2308  -5.2198  -5.2128  -5.2037
    -5.1976  -5.1882  -5.1830  -5.1789  -5.1694  -5.1651  -5.1615  -5.1580
    -5.1566  -5.1536  -5.1503  -5.1380  -5.1346  -5.1315  -5.1250  -5.1185
    -5.1066  -5.1035  -5.0995  -5.0931  -5.0905  -5.0812  -5.0783  -5.0731
    -5.0698  -5.0673  -5.0620  -5.0553  -5.0505  -5.0454  -5.0427  -5.0387
    -5.0323  -5.0236  -5.0186  -4.9908  -4.9836  -4.9610  -4.9494  -4.9463
    -4.9244  -4.8765  -4.8553  -4.8086  -4.3504  -3.7359  -3.5801  -3.2389
    -3.0585  -2.7230  -2.6890  -2.6189  -2.4608  -2.2980  -2.1703  -1.9561
    -0.0263   0.0598   0.1332   0.3639   0.5897   0.6681   0.7424   0.9237
     1.0562   1.1240   1.2455   1.4104   1.4492   1.6038   1.7276   1.8294
     1.9665   1.9884   2.1194   2.1792   2.2815   2.3379   2.4164   2.4617
     2.4974   2.5216   2.6180   2.7167   2.7570   2.8252   2.8443   2.9081
     2.9925   3.0233   3.0917   3.1260   3.1967   3.2332   3.2736   3.3211
     3.3610   3.3823   3.4060   3.4509   3.5115   3.5686   3.5892   3.6089

          k = 0.0000 0.3333 0.0000 (114685 PWs)   bands (ev):

   -40.7838 -40.7749 -40.5485 -40.3865 -40.2296 -40.1318 -40.1084 -39.9874
   -39.8895 -39.8260 -39.8224 -39.8138 -39.7801 -39.7141 -39.7085 -39.6784
   -39.6572 -39.6447 -21.8035 -21.7742 -21.7505 -21.7405 -21.7247 -21.7172
   -21.5665 -21.5142 -21.4935 -21.3987 -21.3646 -21.3473 -21.2513 -21.2060
   -21.1967 -21.1649 -21.1493 -21.1074 -21.0987 -21.0747 -21.0705 -21.0024
   -20.9880 -20.9540 -20.9264 -20.8790 -20.8678 -20.8501 -20.8418 -20.8363
   -20.8328 -20.8260 -20.8201 -20.8067 -20.8004 -20.7960 -20.7912 -20.7786
   -20.7632 -20.7335 -20.7315 -20.7062 -20.7052 -20.7010 -20.6935 -20.6895
   -20.6822 -20.6697 -20.6660 -20.6583 -20.6548 -20.6423 -20.6328 -20.6237
    -5.3751  -5.3557  -5.3518  -5.3189  -5.3041  -5.2982  -5.2863  -5.2670
    -5.2643  -5.2556  -5.2545  -5.2379  -5.2342  -5.2234  -5.2175  -5.2073
    -5.1966  -5.1938  -5.1889  -5.1798  -5.1732  -5.1658  -5.1629  -5.1591
    -5.1537  -5.1499  -5.1472  -5.1400  -5.1340  -5.1322  -5.1256  -5.1173
    -5.1060  -5.1026  -5.0977  -5.0900  -5.0853  -5.0782  -5.0746  -5.0706
    -5.0665  -5.0632  -5.0580  -5.0527  -5.0487  -5.0443  -5.0431  -5.0395
    -5.0365  -5.0246  -5.0193  -4.9891  -4.9844  -4.9579  -4.9474  -4.9437
    -4.9259  -4.8756  -4.8553  -4.8093  -4.2428  -3.7231  -3.6432  -3.2733
    -3.0053  -2.7626  -2.6598  -2.5976  -2.5306  -2.3123  -2.2780  -2.0745
    -0.1577   0.0503   0.3122   0.4445   0.5076   0.5786   0.8692   1.0189
     1.1302   1.2562   1.3217   1.5057   1.5985   1.6550   1.7785   1.8443
     1.9157   2.0514   2.1556   2.2031   2.2702   2.2957   2.3675   2.4458
     2.4667   2.5405   2.5941   2.6851   2.7355   2.7856   2.8190   2.8780
     2.9738   3.0466   3.1022   3.1284   3.1800   3.2043   3.2346   3.2574
     3.3016   3.3498   3.3777   3.4145   3.4471   3.4850   3.5068   3.5677

          k =-0.1111 0.3333 0.1138 (114703 PWs)   bands (ev):

   -40.7838 -40.7749 -40.5485 -40.3865 -40.2296 -40.1318 -40.1084 -39.9874
   -39.8895 -39.8260 -39.8224 -39.8138 -39.7801 -39.7141 -39.7085 -39.6784
   -39.6572 -39.6447 -21.8035 -21.7742 -21.7505 -21.7405 -21.7247 -21.7172
   -21.5665 -21.5142 -21.4935 -21.3987 -21.3646 -21.3473 -21.2513 -21.2061
   -21.1966 -21.1649 -21.1493 -21.1074 -21.0987 -21.0747 -21.0705 -21.0024
   -20.9880 -20.9541 -20.9264 -20.8789 -20.8678 -20.8501 -20.8419 -20.8363
   -20.8327 -20.8259 -20.8199 -20.8067 -20.8006 -20.7961 -20.7909 -20.7786
   -20.7633 -20.7336 -20.7312 -20.7069 -20.7050 -20.7007 -20.6933 -20.6897
   -20.6821 -20.6708 -20.6656 -20.6580 -20.6546 -20.6424 -20.6325 -20.6240
    -5.3729  -5.3569  -5.3539  -5.3200  -5.3045  -5.2979  -5.2847  -5.2697
    -5.2624  -5.2573  -5.2550  -5.2381  -5.2311  -5.2231  -5.2184  -5.2070
    -5.1978  -5.1925  -5.1883  -5.1783  -5.1759  -5.1647  -5.1621  -5.1588
    -5.1540  -5.1491  -5.1455  -5.1384  -5.1360  -5.1320  -5.1247  -5.1166
    -5.1057  -5.1018  -5.0979  -5.0919  -5.0846  -5.0788  -5.0761  -5.0732
    -5.0687  -5.0648  -5.0616  -5.0516  -5.0479  -5.0445  -5.0427  -5.0383
    -5.0338  -5.0270  -5.0148  -4.9895  -4.9854  -4.9568  -4.9487  -4.9430
    -4.9275  -4.8733  -4.8554  -4.8098  -4.2043  -3.7164  -3.6161  -3.3041
    -3.0084  -2.8776  -2.7345  -2.5846  -2.5153  -2.2858  -2.2264  -2.0640
    -0.1134   0.0695   0.2285   0.4076   0.5530   0.6530   0.9009   1.0044
     1.1159   1.2482   1.3505   1.5023   1.6118   1.6694   1.7556   1.9213
     1.9727   2.0002   2.0895   2.2040   2.2836   2.3155   2.3771   2.4218
     2.4901   2.5077   2.5510   2.6648   2.7011   2.7602   2.8331   2.8513
     2.9516   3.0318   3.0688   3.1375   3.1781   3.2047   3.2784   3.3062
     3.3624   3.3828   3.4017   3.4227   3.4758   3.4929   3.5182   3.5945

          k =-0.2222 0.3333 0.2277 (114738 PWs)   bands (ev):

   -40.7838 -40.7749 -40.5485 -40.3865 -40.2296 -40.1318 -40.1084 -39.9874
   -39.8895 -39.8260 -39.8224 -39.8138 -39.7801 -39.7141 -39.7085 -39.6784
   -39.6572 -39.6447 -21.8035 -21.7742 -21.7505 -21.7405 -21.7247 -21.7172
   -21.5665 -21.5142 -21.4935 -21.3987 -21.3646 -21.3473 -21.2513 -21.2061
   -21.1966 -21.1649 -21.1493 -21.1074 -21.0987 -21.0748 -21.0705 -21.0024
   -20.9879 -20.9542 -20.9264 -20.8787 -20.8679 -20.8500 -20.8420 -20.8364
   -20.8324 -20.8259 -20.8198 -20.8073 -20.8004 -20.7962 -20.7908 -20.7785
   -20.7632 -20.7340 -20.7308 -20.7079 -20.7047 -20.7009 -20.6927 -20.6895
   -20.6818 -20.6722 -20.6651 -20.6579 -20.6542 -20.6429 -20.6317 -20.6245
    -5.3720  -5.3581  -5.3523  -5.3232  -5.3044  -5.3011  -5.2817  -5.2735
    -5.2650  -5.2609  -5.2514  -5.2397  -5.2267  -5.2199  -5.2144  -5.2048
    -5.1980  -5.1916  -5.1868  -5.1809  -5.1727  -5.1643  -5.1613  -5.1595
    -5.1545  -5.1496  -5.1457  -5.1396  -5.1363  -5.1305  -5.1245  -5.1173
    -5.1064  -5.1016  -5.0986  -5.0939  -5.0844  -5.0814  -5.0766  -5.0745
    -5.0710  -5.0684  -5.0619  -5.0533  -5.0489  -5.0447  -5.0422  -5.0374
    -5.0334  -5.0230  -5.0104  -4.9898  -4.9855  -4.9576  -4.9480  -4.9431
    -4.9282  -4.8731  -4.8551  -4.8097  -4.0927  -3.7628  -3.5421  -3.3818
    -3.0419  -2.9148  -2.8237  -2.6826  -2.5072  -2.2842  -2.1709  -2.0128
    -0.0191   0.0685   0.2091   0.3961   0.6017   0.6411   0.9263   1.0100
     1.1457   1.2716   1.4003   1.5329   1.6110   1.6646   1.7862   1.8577
     1.9685   2.0459   2.1243   2.1853   2.2299   2.2752   2.3811   2.4325
     2.4830   2.5158   2.5473   2.6121   2.7037   2.7406   2.8000   2.8857
     2.9231   2.9909   3.0716   3.1166   3.1469   3.2142   3.2738   3.3242
     3.3684   3.4017   3.4362   3.4841   3.5154   3.5595   3.5995   3.6319

          k = 0.3333 0.3333-0.3415 (114758 PWs)   bands (ev):

   -40.7838 -40.7749 -40.5485 -40.3865 -40.2296 -40.1318 -40.1084 -39.9874
   -39.8895 -39.8260 -39.8224 -39.8138 -39.7801 -39.7141 -39.7085 -39.6784
   -39.6572 -39.6447 -21.8035 -21.7742 -21.7505 -21.7405 -21.7247 -21.7172
   -21.5665 -21.5142 -21.4935 -21.3987 -21.3645 -21.3473 -21.2513 -21.2061
   -21.1965 -21.1649 -21.1493 -21.1074 -21.0987 -21.0748 -21.0705 -21.0024
   -20.9879 -20.9542 -20.9264 -20.8786 -20.8679 -20.8500 -20.8419 -20.8365
   -20.8321 -20.8259 -20.8198 -20.8079 -20.7999 -20.7961 -20.7910 -20.7783
   -20.7632 -20.7343 -20.7308 -20.7083 -20.7044 -20.7012 -20.6926 -20.6890
   -20.6816 -20.6725 -20.6649 -20.6580 -20.6541 -20.6434 -20.6312 -20.6247
    -5.3737  -5.3576  -5.3477  -5.3246  -5.3098  -5.2996  -5.2820  -5.2724
    -5.2703  -5.2625  -5.2509  -5.2378  -5.2244  -5.2160  -5.2097  -5.2038
    -5.2002  -5.1907  -5.1850  -5.1836  -5.1689  -5.1646  -5.1623  -5.1601
    -5.1553  -5.1504  -5.1481  -5.1403  -5.1353  -5.1298  -5.1246  -5.1183
    -5.1074  -5.1027  -5.1006  -5.0926  -5.0883  -5.0820  -5.0768  -5.0743
    -5.0698  -5.0688  -5.0612  -5.0535  -5.0495  -5.0448  -5.0431  -5.0375
    -5.0309  -5.0211  -5.0101  -4.9896  -4.9848  -4.9599  -4.9467  -4.9434
    -4.9272  -4.8749  -4.8548  -4.8090  -3.9400  -3.9085  -3.4595  -3.4366
    -3.0754  -2.8999  -2.8524  -2.7255  -2.5143  -2.3101  -2.1666  -1.9736
    -0.0017   0.1447   0.1646   0.4134   0.5633   0.6721   0.9078   1.0858
     1.1488   1.3368   1.3677   1.5079   1.6128   1.6679   1.7973   1.8427
     1.9467   2.0317   2.0913   2.1657   2.2731   2.3141   2.3346   2.4107
     2.4530   2.5460   2.5833   2.6692   2.6926   2.7554   2.7917   2.8518
     2.9231   2.9875   3.0498   3.0944   3.1780   3.2350   3.2847   3.3133
     3.3595   3.4155   3.4356   3.4792   3.5396   3.5592   3.6196   3.6435

          k = 0.2222 0.3333-0.2277 (114738 PWs)   bands (ev):

   -40.7838 -40.7749 -40.5485 -40.3865 -40.2296 -40.1318 -40.1084 -39.9874
   -39.8895 -39.8260 -39.8224 -39.8138 -39.7801 -39.7141 -39.7085 -39.6784
   -39.6572 -39.6447 -21.8035 -21.7742 -21.7505 -21.7405 -21.7247 -21.7172
   -21.5665 -21.5142 -21.4935 -21.3987 -21.3646 -21.3473 -21.2513 -21.2061
   -21.1966 -21.1649 -21.1493 -21.1074 -21.0987 -21.0748 -21.0705 -21.0024
   -20.9879 -20.9542 -20.9264 -20.8787 -20.8679 -20.8500 -20.8418 -20.8364
   -20.8322 -20.8260 -20.8200 -20.8079 -20.7996 -20.7960 -20.7913 -20.7783
   -20.7631 -20.7343 -20.7310 -20.7078 -20.7045 -20.7013 -20.6929 -20.6888
   -20.6818 -20.6716 -20.6652 -20.6580 -20.6545 -20.6433 -20.6316 -20.6243
    -5.3762  -5.3568  -5.3439  -5.3231  -5.3129  -5.2985  -5.2828  -5.2748
    -5.2643  -5.2606  -5.2545  -5.2355  -5.2273  -5.2161  -5.2119  -5.2052
    -5.1986  -5.1912  -5.1869  -5.1817  -5.1684  -5.1650  -5.1627  -5.1611
    -5.1559  -5.1515  -5.1489  -5.1385  -5.1332  -5.1309  -5.1258  -5.1183
    -5.1084  -5.1043  -5.1005  -5.0907  -5.0885  -5.0809  -5.0755  -5.0727
    -5.0691  -5.0660  -5.0592  -5.0523  -5.0499  -5.0464  -5.0433  -5.0386
    -5.0318  -5.0202  -5.0141  -4.9892  -4.9838  -4.9609  -4.9465  -4.9433
    -4.9254  -4.8769  -4.8548  -4.8085  -4.0859  -3.7837  -3.5300  -3.3941
    -3.0524  -2.8431  -2.8185  -2.6779  -2.5179  -2.3376  -2.2058  -1.9808
    -0.0180   0.0871   0.1938   0.4396   0.5227   0.7059   0.9332   1.0862
     1.1448   1.2085   1.4202   1.4800   1.5661   1.6536   1.7467   1.8686
     1.9239   2.0682   2.1170   2.1834   2.2610   2.3139   2.3621   2.4474
     2.4671   2.5233   2.6212   2.6480   2.7182   2.7808   2.8284   2.8867
     2.9376   2.9979   3.0575   3.0973   3.1600   3.2185   3.2590   3.3157
     3.3441   3.3833   3.4244   3.4796   3.4902   3.5518   3.5891   3.6138

          k = 0.1111 0.3333-0.1138 (114703 PWs)   bands (ev):

   -40.7838 -40.7749 -40.5485 -40.3865 -40.2296 -40.1318 -40.1084 -39.9874
   -39.8895 -39.8260 -39.8224 -39.8138 -39.7801 -39.7141 -39.7085 -39.6784
   -39.6572 -39.6447 -21.8035 -21.7742 -21.7505 -21.7405 -21.7247 -21.7172
   -21.5665 -21.5142 -21.4935 -21.3987 -21.3646 -21.3473 -21.2513 -21.2061
   -21.1967 -21.1649 -21.1493 -21.1074 -21.0987 -21.0747 -21.0705 -21.0024
   -20.9880 -20.9541 -20.9264 -20.8789 -20.8678 -20.8501 -20.8418 -20.8363
   -20.8325 -20.8260 -20.8202 -20.8073 -20.7999 -20.7959 -20.7913 -20.7784
   -20.7632 -20.7339 -20.7313 -20.7068 -20.7048 -20.7013 -20.6933 -20.6890
   -20.6821 -20.6702 -20.6657 -20.6582 -20.6549 -20.6427 -20.6324 -20.6239
    -5.3767  -5.3561  -5.3465  -5.3212  -5.3065  -5.3001  -5.2847  -5.2718
    -5.2608  -5.2578  -5.2555  -5.2366  -5.2328  -5.2203  -5.2150  -5.2064
    -5.1970  -5.1934  -5.1874  -5.1807  -5.1698  -5.1668  -5.1623  -5.1606
    -5.1550  -5.1514  -5.1484  -5.1387  -5.1333  -5.1316  -5.1268  -5.1181
    -5.1074  -5.1037  -5.0993  -5.0898  -5.0851  -5.0778  -5.0754  -5.0700
    -5.0676  -5.0635  -5.0579  -5.0530  -5.0504  -5.0453  -5.0432  -5.0398
    -5.0351  -5.0238  -5.0165  -4.9890  -4.9835  -4.9597  -4.9467  -4.9437
    -4.9247  -4.8774  -4.8551  -4.8086  -4.2016  -3.7291  -3.6116  -3.3170
    -3.0265  -2.7743  -2.6891  -2.6393  -2.5233  -2.3514  -2.2560  -2.0292
    -0.1051   0.0615   0.2344   0.4442   0.5529   0.6817   0.8467   1.0022
     1.1490   1.2587   1.3180   1.4858   1.5571   1.6962   1.7809   1.8617
     1.9469   2.0254   2.1441   2.1878   2.2459   2.2837   2.3824   2.4432
     2.4906   2.5283   2.6125   2.6959   2.7484   2.8112   2.8407   2.8860
     2.9558   3.0077   3.0700   3.1218   3.1509   3.1998   3.2554   3.2792
     3.3042   3.3530   3.3796   3.4397   3.4854   3.5144   3.5476   3.5759

          k = 0.0000-0.5000 0.0000 (114648 PWs)   bands (ev):

   -40.7838 -40.7749 -40.5485 -40.3865 -40.2296 -40.1318 -40.1084 -39.9874
   -39.8895 -39.8260 -39.8224 -39.8138 -39.7801 -39.7141 -39.7085 -39.6784
   -39.6572 -39.6447 -21.8035 -21.7742 -21.7505 -21.7405 -21.7247 -21.7172
   -21.5665 -21.5141 -21.4935 -21.3987 -21.3646 -21.3473 -21.2513 -21.2061
   -21.1967 -21.1649 -21.1493 -21.1074 -21.0987 -21.0747 -21.0705 -21.0023
   -20.9880 -20.9540 -20.9264 -20.8790 -20.8678 -20.8500 -20.8418 -20.8364
   -20.8328 -20.8258 -20.8202 -20.8069 -20.8002 -20.7959 -20.7913 -20.7786
   -20.7632 -20.7333 -20.7315 -20.7065 -20.7051 -20.7007 -20.6929 -20.6899
   -20.6823 -20.6698 -20.6661 -20.6580 -20.6551 -20.6420 -20.6332 -20.6237
    -5.3764  -5.3558  -5.3547  -5.3194  -5.3049  -5.2981  -5.2852  -5.2651
    -5.2642  -5.2576  -5.2556  -5.2364  -5.2334  -5.2213  -5.2169  -5.2127
    -5.2007  -5.1947  -5.1924  -5.1804  -5.1742  -5.1651  -5.1648  -5.1604
    -5.1533  -5.1491  -5.1470  -5.1399  -5.1340  -5.1295  -5.1274  -5.1161
    -5.1059  -5.1036  -5.0965  -5.0889  -5.0824  -5.0769  -5.0722  -5.0693
    -5.0662  -5.0623  -5.0558  -5.0508  -5.0492  -5.0433  -5.0420  -5.0383
    -5.0379  -5.0273  -5.0172  -4.9883  -4.9845  -4.9567  -4.9465  -4.9422
    -4.9260  -4.8767  -4.8552  -4.8096  -4.0163  -3.9948  -3.4659  -3.4480
    -2.9641  -2.7139  -2.6501  -2.5899  -2.5482  -2.3747  -2.3285  -2.1194
    -0.1570  -0.1201   0.3513   0.5108   0.5416   0.5908   0.8636   1.1449
     1.3133   1.3968   1.4261   1.4684   1.5514   1.6345   1.7672   1.9330
     1.9956   2.0228   2.1446   2.1782   2.2401   2.2936   2.3658   2.3758
     2.4619   2.5338   2.5529   2.6655   2.7104   2.8248   2.8625   2.8888
     2.9195   3.0103   3.0873   3.1302   3.1517   3.1782   3.2264   3.2352
     3.2586   3.3053   3.3746   3.3779   3.4229   3.4726   3.5267   3.5856

          k =-0.1111-0.5000 0.1138 (114696 PWs)   bands (ev):

   -40.7838 -40.7749 -40.5485 -40.3865 -40.2296 -40.1318 -40.1084 -39.9874
   -39.8895 -39.8260 -39.8224 -39.8138 -39.7801 -39.7141 -39.7085 -39.6784
   -39.6572 -39.6447 -21.8035 -21.7742 -21.7505 -21.7405 -21.7247 -21.7172
   -21.5665 -21.5141 -21.4935 -21.3987 -21.3646 -21.3473 -21.2513 -21.2061
   -21.1967 -21.1649 -21.1493 -21.1074 -21.0987 -21.0747 -21.0705 -21.0024
   -20.9880 -20.9541 -20.9264 -20.8789 -20.8678 -20.8500 -20.8418 -20.8364
   -20.8326 -20.8258 -20.8202 -20.8072 -20.8001 -20.7959 -20.7912 -20.7785
   -20.7632 -20.7336 -20.7313 -20.7072 -20.7047 -20.7008 -20.6928 -20.6897
   -20.6822 -20.6707 -20.6658 -20.6578 -20.6549 -20.6423 -20.6328 -20.6240
    -5.3755  -5.3555  -5.3532  -5.3192  -5.3065  -5.2991  -5.2859  -5.2696
    -5.2647  -5.2613  -5.2554  -5.2355  -5.2308  -5.2231  -5.2145  -5.2090
    -5.1995  -5.1930  -5.1912  -5.1809  -5.1732  -5.1653  -5.1626  -5.1601
    -5.1549  -5.1497  -5.1464  -5.1390  -5.1344  -5.1300  -5.1270  -5.1169
    -5.1054  -5.1037  -5.0977  -5.0900  -5.0825  -5.0784  -5.0742  -5.0707
    -5.0674  -5.0630  -5.0578  -5.0521  -5.0489  -5.0439  -5.0426  -5.0379
    -5.0323  -5.0266  -5.0172  -4.9885  -4.9844  -4.9575  -4.9461  -4.9423
    -4.9265  -4.8757  -4.8551  -4.8093  -3.9859  -3.9626  -3.4540  -3.4355
    -2.9984  -2.8240  -2.6940  -2.6675  -2.5468  -2.3306  -2.2844  -2.0837
    -0.0935  -0.0488   0.3256   0.4495   0.5355   0.5953   0.9738   1.1643
     1.2571   1.3728   1.4364   1.4505   1.5482   1.6942   1.7500   1.8806
     2.0004   2.0612   2.0780   2.1488   2.1758   2.3238   2.4130   2.4437
     2.4836   2.5300   2.5667   2.6400   2.7219   2.7871   2.8231   2.8733
     2.9220   3.0663   3.0980   3.1163   3.1400   3.1950   3.2096   3.2434
     3.2939   3.3211   3.3768   3.4383   3.4669   3.4723   3.5509   3.5676

          k =-0.2222-0.5000 0.2277 (114736 PWs)   bands (ev):

   -40.7838 -40.7749 -40.5485 -40.3865 -40.2296 -40.1318 -40.1084 -39.9874
   -39.8895 -39.8260 -39.8224 -39.8138 -39.7801 -39.7141 -39.7085 -39.6784
   -39.6572 -39.6447 -21.8035 -21.7742 -21.7505 -21.7405 -21.7247 -21.7172
   -21.5665 -21.5141 -21.4935 -21.3987 -21.3646 -21.3473 -21.2513 -21.2061
   -21.1966 -21.1649 -21.1493 -21.1074 -21.0987 -21.0748 -21.0705 -21.0024
   -20.9879 -20.9542 -20.9264 -20.8787 -20.8679 -20.8499 -20.8419 -20.8366
   -20.8322 -20.8258 -20.8201 -20.8079 -20.7999 -20.7961 -20.7910 -20.7782
   -20.7632 -20.7341 -20.7310 -20.7082 -20.7043 -20.7010 -20.6925 -20.6892
   -20.6818 -20.6722 -20.6653 -20.6577 -20.6543 -20.6428 -20.6320 -20.6245
    -5.3733  -5.3552  -5.3488  -5.3197  -5.3105  -5.3004  -5.2889  -5.2772
    -5.2713  -5.2603  -5.2554  -5.2369  -5.2270  -5.2195  -5.2096  -5.2050
    -5.1989  -5.1897  -5.1871  -5.1820  -5.1705  -5.1646  -5.1617  -5.1591
    -5.1563  -5.1501  -5.1466  -5.1394  -5.1342  -5.1303  -5.1258  -5.1190
    -5.1060  -5.1026  -5.0993  -5.0923  -5.0836  -5.0812  -5.0760  -5.0725
    -5.0699  -5.0683  -5.0616  -5.0525  -5.0484  -5.0441  -5.0426  -5.0369
    -5.0294  -5.0208  -5.0163  -4.9888  -4.9842  -4.9591  -4.9452  -4.9426
    -4.9276  -4.8741  -4.8547  -4.8086  -3.9126  -3.8822  -3.4458  -3.4269
    -3.0655  -2.9524  -2.8190  -2.7796  -2.5204  -2.3466  -2.2009  -2.0206
     0.0420   0.1244   0.2830   0.3595   0.5375   0.6286   0.9634   1.1083
     1.2816   1.3012   1.4602   1.5283   1.5807   1.7212   1.7964   1.8564
     1.9658   2.0157   2.0976   2.1563   2.2277   2.2696   2.3709   2.4279
     2.4642   2.5060   2.5381   2.6743   2.6956   2.7627   2.8035   2.8470
     2.9416   3.0283   3.0978   3.1383   3.1953   3.2213   3.2487   3.2767
     3.3344   3.3616   3.4055   3.4747   3.5035   3.5409   3.5689   3.5981

          k = 0.3333-0.5000-0.3415 (114712 PWs)   bands (ev):

   -40.7838 -40.7749 -40.5485 -40.3865 -40.2296 -40.1318 -40.1084 -39.9874
   -39.8895 -39.8260 -39.8224 -39.8138 -39.7801 -39.7141 -39.7085 -39.6784
   -39.6572 -39.6447 -21.8035 -21.7742 -21.7505 -21.7405 -21.7247 -21.7172
   -21.5665 -21.5141 -21.4935 -21.3987 -21.3646 -21.3473 -21.2513 -21.2061
   -21.1965 -21.1649 -21.1493 -21.1074 -21.0987 -21.0748 -21.0705 -21.0024
   -20.9878 -20.9542 -20.9264 -20.8786 -20.8679 -20.8499 -20.8419 -20.8367
   -20.8321 -20.8257 -20.8200 -20.8083 -20.7998 -20.7961 -20.7909 -20.7781
   -20.7631 -20.7343 -20.7309 -20.7086 -20.7040 -20.7012 -20.6924 -20.6889
   -20.6815 -20.6730 -20.6651 -20.6578 -20.6540 -20.6430 -20.6316 -20.6248
    -5.3718  -5.3553  -5.3456  -5.3184  -5.3169  -5.2986  -5.2911  -5.2810
    -5.2750  -5.2610  -5.2535  -5.2386  -5.2236  -5.2166  -5.2078  -5.2037
    -5.1996  -5.1889  -5.1843  -5.1804  -5.1700  -5.1646  -5.1623  -5.1589
    -5.1549  -5.1507  -5.1473  -5.1395  -5.1339  -5.1301  -5.1254  -5.1205
    -5.1065  -5.1015  -5.1002  -5.0940  -5.0841  -5.0819  -5.0771  -5.0738
    -5.0731  -5.0683  -5.0624  -5.0539  -5.0504  -5.0443  -5.0425  -5.0349
    -5.0283  -5.0177  -5.0157  -4.9889  -4.9841  -4.9599  -4.9448  -4.9428
    -4.9282  -4.8735  -4.8544  -4.8083  -3.8653  -3.8269  -3.4605  -3.4454
    -3.0757  -2.9893  -2.8816  -2.8451  -2.5077  -2.3613  -2.1692  -1.9962
     0.0953   0.2415   0.3170   0.3396   0.5029   0.6059   0.8848   1.0816
     1.2513   1.3550   1.4607   1.5236   1.6525   1.7351   1.8615   1.8891
     1.9893   2.0391   2.1034   2.1164   2.1454   2.2450   2.3156   2.4048
     2.4599   2.5017   2.5543   2.6664   2.7182   2.7386   2.7436   2.8204
     2.9322   3.0476   3.0836   3.1359   3.2316   3.2438   3.2888   3.3273
     3.3562   3.3733   3.4380   3.4980   3.5342   3.5698   3.5845   3.6159

     the Fermi energy is     2.0572 ev

!    total energy              =   -2642.59090695 Ry
     estimated scf accuracy    <       0.00000062 Ry
     smearing contrib. (-TS)   =      -0.03618112 Ry
     internal energy E=F+TS    =   -2642.55472583 Ry

     The total energy is F=E-TS. E is the sum of the following terms:
     one-electron contribution =  -11388.92576838 Ry
     hartree contribution      =    5774.86321608 Ry
     xc contribution           =    -680.66851862 Ry
     ewald contribution        =    3652.17633020 Ry
     electric field correction =       0.00001488 Ry

     convergence has been achieved in  24 iterations

     negative rho (up, down):  8.664E-08 0.000E+00

     Forces acting on atoms (cartesian axes, Ry/au):

     atom    1 type  1   force =     0.01394498   -0.00140823   -0.00243593
     atom    2 type  1   force =    -0.00174057    0.00018165   -0.00684578
     atom    3 type  1   force =     0.00235118   -0.00031464    0.00042377
     atom    4 type  1   force =    -0.00363354    0.00069513   -0.00236471
     atom    5 type  1   force =     0.00064929    0.00018242    0.00022543
     atom    6 type  1   force =    -0.00006414   -0.00194500    0.00365104
     atom    7 type  1   force =     0.00148035    0.00170817   -0.00031717
     atom    8 type  1   force =     0.00254227   -0.00104755   -0.00148768
     atom    9 type  1   force =     0.00098837   -0.00367487    0.01385706
     atom   10 type  1   force =     0.00238398   -0.00297907    0.00242312
     atom   11 type  1   force =     0.00153152   -0.00033540    0.00039929
     atom   12 type  1   force =    -0.00151828   -0.00304978   -0.00693554
     atom   13 type  1   force =    -0.00122561    0.00052791   -0.00013552
     atom   14 type  1   force =    -0.00035197    0.00426947   -0.00278596
     atom   15 type  1   force =     0.00182317    0.00104635    0.00390818
     atom   16 type  1   force =    -0.00202100   -0.00029158    0.00030402
     atom   17 type  1   force =    -0.00045724   -0.00113351    0.00074756
     atom   18 type  1   force =    -0.00574520    0.00369544   -0.01319787
     atom   19 type  2   force =    -0.00443936    0.00091119   -0.00660359
     atom   20 type  2   force =     0.00203859   -0.00062436    0.00240301
     atom   21 type  2   force =    -0.00122907    0.00158626   -0.00284744
     atom   22 type  2   force =    -0.00097509   -0.00023449   -0.00026864
     atom   23 type  2   force =    -0.00128356    0.00072551   -0.00049842
     atom   24 type  2   force =     0.00063856   -0.00120146    0.00578955
     atom   25 type  2   force =    -0.00244735    0.00136722   -0.00305349
     atom   26 type  2   force =     0.00246144   -0.00058098    0.00114502
     atom   27 type  2   force =    -0.00717336   -0.00243090    0.00124022
     atom   28 type  2   force =    -0.00155035    0.00297131    0.00590170
     atom   29 type  2   force =    -0.00190977    0.00017674   -0.00192787
     atom   30 type  2   force =     0.00493175    0.00120705    0.00928666

     Total force =     0.035338     Total SCF correction =     0.003266

     Writing all to output data dir ./calc.save/
 
     init_run     :     49.93s CPU     52.05s WALL (       1 calls)
     electrons    :   1920.43s CPU   2004.48s WALL (       1 calls)
     forces       :     19.51s CPU     20.76s WALL (       1 calls)

     Called by init_run:
     wfcinit      :     41.37s CPU     42.12s WALL (       1 calls)
     potinit      :      2.16s CPU      2.19s WALL (       1 calls)
     hinit0       :      3.62s CPU      3.80s WALL (       1 calls)

     Called by electrons:
     c_bands      :   1589.40s CPU   1626.34s WALL (      24 calls)
     sum_band     :    246.79s CPU    271.33s WALL (      24 calls)
     v_of_rho     :      8.67s CPU      8.86s WALL (      25 calls)
     newd         :     33.39s CPU     56.23s WALL (      25 calls)
     mix_rho      :     42.99s CPU     43.39s WALL (      24 calls)

     Called by c_bands:
     init_us_2    :     19.19s CPU     19.24s WALL (    1000 calls)
     init_us_2:cp :     19.18s CPU     19.24s WALL (    1000 calls)
     cegterg      :   1481.65s CPU   1517.25s WALL (     480 calls)

     Called by *egterg:
     cdiaghg      :    110.23s CPU    110.33s WALL (    2341 calls)
     h_psi        :    817.39s CPU    829.81s WALL (    2361 calls)
     s_psi        :    154.82s CPU    154.87s WALL (    2361 calls)
     g_psi        :      3.94s CPU      3.95s WALL (    1861 calls)

     Called by h_psi:
     h_psi:calbec :    158.66s CPU    159.13s WALL (    2361 calls)
     vloc_psi     :    499.70s CPU    503.12s WALL (    2361 calls)
     add_vuspsi   :    154.84s CPU    154.93s WALL (    2361 calls)

     General routines
     calbec       :    232.25s CPU    232.95s WALL (    2921 calls)
     fft          :      8.03s CPU      8.35s WALL (     334 calls)
     ffts         :     20.34s CPU     20.55s WALL (    7422 calls)
     fftw         :    535.14s CPU    538.98s WALL (  528570 calls)
     interpolate  :      0.57s CPU      0.58s WALL (      25 calls)
 
     Parallel routines
 
     PWSCF        :  33m15.14s CPU  34m52.89s WALL

 
   This run was terminated on:   2:41:50   8Aug2023            

=------------------------------------------------------------------------------=
   JOB DONE.
=------------------------------------------------------------------------------=
