  python dir          : /home/p.schindler/.conda/envs/dft3_8/lib/python3.8/site-packages/espresso
  espresso dir        : /home/p.schindler/q-e_7-1/bin/
  pseudo dir          : /home/p.schindler/q-e_7-1/PSPs/Vanderbilt_USPP_PBE/
  ase-espresso py git : 4b1d7e3-git



     Program PWSCF v.7.1 starts on  8Aug2023 at  2: 6:57 

     This program is part of the open-source Quantum ESPRESSO suite
     for quantum simulation of materials; please cite
         "P. Giannozzi et al., J. Phys.:Condens. Matter 21 395502 (2009);
         "P. Giannozzi et al., J. Phys.:Condens. Matter 29 465901 (2017);
         "P. Giannozzi et al., J. Chem. Phys. 152 154105 (2020);
          URL http://www.quantum-espresso.org", 
     in publications or presentations arising from this work. More details at
     http://www.quantum-espresso.org/quote

     Parallel version (MPI), running on    20 processors

     MPI processes distributed on     1 nodes
     94868 MiB available memory on the printing compute node when the environment starts
 
     Reading input from pw.inp

     Current dimensions of program PWSCF are:
     Max number of different atomic species (ntypx) = 10
     Max number of k-points (npk) =  40000
     Max angular momentum in pseudopotentials (lmaxx) =  4
     Presently no symmetry can be used with electric field

     file Tb.UPF: wavefunction(s)  5P renormalized

     IMPORTANT: XC functional enforced from input :
     Exchange-correlation= PBE
                           (   1   4   3   4   0   0   0)
     Any further DFT definition will be discarded
     Please, verify this is what you really want

 
     R & G space division:  proc/nbgrp/npool/nimage =      20
     Subspace diagonalization in iterative solution of the eigenvalue problem:
     a serial algorithm will be used

 
     Parallelization info
     --------------------
     sticks:   dense  smooth     PW     G-vecs:    dense   smooth      PW
     Min         213      85     24                75995    19217    2988
     Max         214      86     25                76032    19241    3007
     Sum        4277    1719    499              1520341   384659   59987
 
     Using Slab Decomposition
 


     bravais-lattice index     =            0
     lattice parameter (alat)  =      10.7845  a.u.
     unit-cell volume          =    5765.3913 (a.u.)^3
     number of atoms/cell      =           42
     number of atomic types    =            2
     number of electrons       =       238.00
     number of Kohn-Sham states=          149
     kinetic-energy cutoff     =      62.4738  Ry
     charge density cutoff     =     624.7385  Ry
     scf convergence threshold =      7.3E-07
     mixing beta               =       0.1500
     number of iterations used =           10  local-TF  mixing
     Exchange-correlation= PBE
                           (   1   4   3   4   0   0   0)

     celldm(1)=  10.784504  celldm(2)=   0.000000  celldm(3)=   0.000000
     celldm(4)=   0.000000  celldm(5)=   0.000000  celldm(6)=   0.000000

     crystal axes: (cart. coord. in units of alat)
               a(1) = (   0.000000   1.000000   0.000000 )  
               a(2) = (  -0.288675   0.500000   0.680886 )  
               a(3) = (   5.786379   0.000000   2.274683 )  

     reciprocal axes: (cart. coord. in units 2 pi/alat)
               b(1) = (  0.247436  1.000000 -0.629432 )  
               b(2) = ( -0.494872  0.000000  1.258863 )  
               b(3) = (  0.148131  0.000000  0.062803 )  


     PseudoPot. # 1 for Tb read from file:
     /home/p.schindler/q-e_7-1/PSPs/Vanderbilt_USPP_PBE/Tb.UPF
     MD5 check sum: f1c904a2ef8d5f223cb4467498f38a11
     Pseudo is Projector augmented-wave + core cor, Zval = 11.0
     Generated using "atomic" code by A. Dal Corso  v.5.1.2
     Shape of augmentation charge: PSQ
     Using radial grid of 1263 points,  6 beta functions with: 
                l(1) =   0
                l(2) =   0
                l(3) =   1
                l(4) =   1
                l(5) =   2
                l(6) =   2
     Q(r) pseudized with 0 coefficients 


     PseudoPot. # 2 for B  read from file:
     /home/p.schindler/q-e_7-1/PSPs/Vanderbilt_USPP_PBE/B.UPF
     MD5 check sum: cc6de2960df11db49a60e589f9ebb39b
     Pseudo is Ultrasoft + core correction, Zval =  3.0
     Generated by new atomic code, or converted to UPF format
     Using radial grid of  781 points,  4 beta functions with: 
                l(1) =   0
                l(2) =   0
                l(3) =   1
                l(4) =   1
     Q(r) pseudized with  8 coefficients,  rinner =    1.100   1.100   1.100


     atomic species   valence    mass     pseudopotential
        Tb1           11.00   158.92535     Tb( 1.00)
        B1             3.00    10.81000     B ( 1.00)

     No symmetry found



   Cartesian axes

     site n.     atom                  positions (alat units)
         1           Tb1 tau(   1) = (   1.2229109   1.0000000   1.1616246  )
         2           Tb1 tau(   2) = (   2.9549617   1.0000000   1.8425109  )
         3           Tb1 tau(   3) = (   0.9344090   0.5000000   1.1616927  )
         4           Tb1 tau(   4) = (   2.9551349   0.0000000   1.1616927  )
         5           Tb1 tau(   5) = (   1.5115860   0.5000000   1.1616246  )
         6           Tb1 tau(   6) = (   3.2436368   0.5000000   1.8425109  )
         7           Tb1 tau(   7) = (   1.8002612   1.0000000   1.1616246  )
         8           Tb1 tau(   8) = (   3.5323120   1.0000000   1.8425109  )
         9           Tb1 tau(   9) = (   2.0889363   0.5000000   1.1616246  )
        10           Tb1 tau(  10) = (   3.8209871   0.5000000   1.8425109  )
        11           Tb1 tau(  11) = (   2.3776114   1.0000000   1.1616246  )
        12           Tb1 tau(  12) = (   4.1096622   1.0000000   1.8425109  )
        13           Tb1 tau(  13) = (   2.6662866   0.5000000   1.1616246  )
        14           Tb1 tau(  14) = (   4.3983374   0.5000000   1.8425109  )
        15           B1  tau(  15) = (   1.8002612   0.6666667   0.8211815  )
        16           B1  tau(  16) = (   3.5323120   0.6666667   1.5020677  )
        17           B1  tau(  17) = (   1.5115860   0.1666667   0.8211815  )
        18           B1  tau(  18) = (   3.2436368   0.1666667   1.5020677  )
        19           B1  tau(  19) = (   2.0889363   0.1666667   0.8211815  )
        20           B1  tau(  20) = (   3.5323120   0.6666667   2.1829540  )
        21           B1  tau(  21) = (   2.0889363   1.1666667   1.5020677  )
        22           B1  tau(  22) = (   3.8209871   1.1666667   2.1829540  )
        23           B1  tau(  23) = (   2.3776114   0.6666667   1.5020677  )
        24           B1  tau(  24) = (   4.1096622   0.6666667   2.1829540  )
        25           B1  tau(  25) = (   2.6662866   1.1666667   1.5020677  )
        26           B1  tau(  26) = (   4.3983374   1.1666667   2.1829540  )
        27           B1  tau(  27) = (   1.2229109   0.6666667   0.8211815  )
        28           B1  tau(  28) = (   2.9549617   0.6666667   1.5020677  )
        29           B1  tau(  29) = (   1.8002612   0.3333333   0.8211815  )
        30           B1  tau(  30) = (   3.5323120   0.3333333   1.5020677  )
        31           B1  tau(  31) = (   1.5115860   0.8333333   0.8211815  )
        32           B1  tau(  32) = (   3.2436368   0.8333333   1.5020677  )
        33           B1  tau(  33) = (   2.0889363   0.8333333   0.8211815  )
        34           B1  tau(  34) = (   3.5323120   1.3333333   2.1829540  )
        35           B1  tau(  35) = (   2.0889363   0.8333333   1.5020677  )
        36           B1  tau(  36) = (   3.8209871   0.8333333   2.1829540  )
        37           B1  tau(  37) = (   2.3776114   1.3333333   1.5020677  )
        38           B1  tau(  38) = (   4.1096622   1.3333333   2.1829540  )
        39           B1  tau(  39) = (   2.6662866   0.8333333   1.5020677  )
        40           B1  tau(  40) = (   4.3983374   0.8333333   2.1829540  )
        41           B1  tau(  41) = (   1.2229109   0.3333333   0.8211815  )
        42           B1  tau(  42) = (   2.9549617   0.3333333   1.5020677  )

     number of k points=    74  Gaussian smearing, width (Ry)=  0.0147
                       cart. coord. in units 2pi/alat
        k(    1) = (   0.0000000   0.0000000   0.0000000), wk =   0.0138889
        k(    2) = (  -0.0412393   0.0000000   0.1049053), wk =   0.0277778
        k(    3) = (  -0.0824786   0.0000000   0.2098106), wk =   0.0277778
        k(    4) = (  -0.1237179   0.0000000   0.3147159), wk =   0.0277778
        k(    5) = (  -0.1649572   0.0000000   0.4196212), wk =   0.0277778
        k(    6) = (  -0.2061965   0.0000000   0.5245265), wk =   0.0277778
        k(    7) = (   0.2474358   0.0000000  -0.6294317), wk =   0.0138889
        k(    8) = (   0.0206197   0.0833333  -0.0524526), wk =   0.0277778
        k(    9) = (  -0.0206197   0.0833333   0.0524526), wk =   0.0277778
        k(   10) = (  -0.0618590   0.0833333   0.1573579), wk =   0.0277778
        k(   11) = (  -0.1030983   0.0833333   0.2622632), wk =   0.0277778
        k(   12) = (  -0.1443376   0.0833333   0.3671685), wk =   0.0277778
        k(   13) = (  -0.1855769   0.0833333   0.4720738), wk =   0.0277778
        k(   14) = (   0.2680555   0.0833333  -0.6818844), wk =   0.0277778
        k(   15) = (   0.2268162   0.0833333  -0.5769791), wk =   0.0277778
        k(   16) = (   0.1855769   0.0833333  -0.4720738), wk =   0.0277778
        k(   17) = (   0.1443376   0.0833333  -0.3671685), wk =   0.0277778
        k(   18) = (   0.1030983   0.0833333  -0.2622632), wk =   0.0277778
        k(   19) = (   0.0618590   0.0833333  -0.1573579), wk =   0.0277778
        k(   20) = (   0.0412393   0.1666667  -0.1049053), wk =   0.0277778
        k(   21) = (   0.0000000   0.1666667  -0.0000000), wk =   0.0277778
        k(   22) = (  -0.0412393   0.1666667   0.1049053), wk =   0.0277778
        k(   23) = (  -0.0824786   0.1666667   0.2098106), wk =   0.0277778
        k(   24) = (  -0.1237179   0.1666667   0.3147159), wk =   0.0277778
        k(   25) = (  -0.1649572   0.1666667   0.4196212), wk =   0.0277778
        k(   26) = (   0.2886751   0.1666667  -0.7343370), wk =   0.0277778
        k(   27) = (   0.2474358   0.1666667  -0.6294317), wk =   0.0277778
        k(   28) = (   0.2061965   0.1666667  -0.5245265), wk =   0.0277778
        k(   29) = (   0.1649572   0.1666667  -0.4196212), wk =   0.0277778
        k(   30) = (   0.1237179   0.1666667  -0.3147159), wk =   0.0277778
        k(   31) = (   0.0824786   0.1666667  -0.2098106), wk =   0.0277778
        k(   32) = (   0.0618590   0.2500000  -0.1573579), wk =   0.0277778
        k(   33) = (   0.0206197   0.2500000  -0.0524526), wk =   0.0277778
        k(   34) = (  -0.0206197   0.2500000   0.0524526), wk =   0.0277778
        k(   35) = (  -0.0618590   0.2500000   0.1573579), wk =   0.0277778
        k(   36) = (  -0.1030983   0.2500000   0.2622632), wk =   0.0277778
        k(   37) = (  -0.1443376   0.2500000   0.3671685), wk =   0.0277778
        k(   38) = (   0.3092948   0.2500000  -0.7867897), wk =   0.0277778
        k(   39) = (   0.2680555   0.2500000  -0.6818844), wk =   0.0277778
        k(   40) = (   0.2268162   0.2500000  -0.5769791), wk =   0.0277778
        k(   41) = (   0.1855769   0.2500000  -0.4720738), wk =   0.0277778
        k(   42) = (   0.1443376   0.2500000  -0.3671685), wk =   0.0277778
        k(   43) = (   0.1030983   0.2500000  -0.2622632), wk =   0.0277778
        k(   44) = (   0.0824786   0.3333333  -0.2098106), wk =   0.0277778
        k(   45) = (   0.0412393   0.3333333  -0.1049053), wk =   0.0277778
        k(   46) = (   0.0000000   0.3333333  -0.0000000), wk =   0.0277778
        k(   47) = (  -0.0412393   0.3333333   0.1049053), wk =   0.0277778
        k(   48) = (  -0.0824786   0.3333333   0.2098106), wk =   0.0277778
        k(   49) = (  -0.1237179   0.3333333   0.3147159), wk =   0.0277778
        k(   50) = (   0.3299144   0.3333333  -0.8392423), wk =   0.0277778
        k(   51) = (   0.2886751   0.3333333  -0.7343370), wk =   0.0277778
        k(   52) = (   0.2474358   0.3333333  -0.6294317), wk =   0.0277778
        k(   53) = (   0.2061965   0.3333333  -0.5245265), wk =   0.0277778
        k(   54) = (   0.1649572   0.3333333  -0.4196212), wk =   0.0277778
        k(   55) = (   0.1237179   0.3333333  -0.3147159), wk =   0.0277778
        k(   56) = (   0.1030983   0.4166667  -0.2622632), wk =   0.0277778
        k(   57) = (   0.0618590   0.4166667  -0.1573579), wk =   0.0277778
        k(   58) = (   0.0206197   0.4166667  -0.0524526), wk =   0.0277778
        k(   59) = (  -0.0206197   0.4166667   0.0524526), wk =   0.0277778
        k(   60) = (  -0.0618590   0.4166667   0.1573579), wk =   0.0277778
        k(   61) = (  -0.1030983   0.4166667   0.2622632), wk =   0.0277778
        k(   62) = (   0.3505341   0.4166667  -0.8916950), wk =   0.0277778
        k(   63) = (   0.3092948   0.4166667  -0.7867897), wk =   0.0277778
        k(   64) = (   0.2680555   0.4166667  -0.6818844), wk =   0.0277778
        k(   65) = (   0.2268162   0.4166667  -0.5769791), wk =   0.0277778
        k(   66) = (   0.1855769   0.4166667  -0.4720738), wk =   0.0277778
        k(   67) = (   0.1443376   0.4166667  -0.3671685), wk =   0.0277778
        k(   68) = (  -0.1237179  -0.5000000   0.3147159), wk =   0.0138889
        k(   69) = (  -0.1649572  -0.5000000   0.4196212), wk =   0.0277778
        k(   70) = (  -0.2061965  -0.5000000   0.5245265), wk =   0.0277778
        k(   71) = (  -0.2474358  -0.5000000   0.6294317), wk =   0.0277778
        k(   72) = (  -0.2886751  -0.5000000   0.7343370), wk =   0.0277778
        k(   73) = (  -0.3299144  -0.5000000   0.8392423), wk =   0.0277778
        k(   74) = (   0.1237179  -0.5000000  -0.3147159), wk =   0.0138889

     Dense  grid:  1520341 G-vectors     FFT dimensions: (  90,  80, 540)

     Smooth grid:   384659 G-vectors     FFT dimensions: (  60,  50, 360)

     Estimated max dynamical RAM per process >     794.25 MB

     Estimated total dynamical RAM >      15.51 GB

     Initial potential from superposition of free atoms

     starting charge     237.6951, renormalised to     238.0000

     negative rho (up, down):  2.065E-04 0.000E+00
 
     Adding external electric field

     Computed dipole along edir(3) : 
        Dipole               -0.1431 Ry au,         -0.3637 Debye
        Dipole field         -0.0003 Ry au, 
 
        Potential amp.        0.0408 Ry
        Total length         65.3755 bohr
 
     Starting wfcs are  294 randomized atomic wfcs
     Checking if some PAW data can be deallocated... 

     total cpu time spent up to now is       59.9 secs

     Self-consistent Calculation

     iteration #  1     ecut=    62.47 Ry     beta= 0.15
     Davidson diagonalization with overlap
     ethr =  1.00E-02,  avg # of iterations =  2.0
 
     Adding external electric field

     Computed dipole along edir(3) : 
        Dipole               -0.1566 Ry au,         -0.3979 Debye
        Dipole field         -0.0003 Ry au, 
 
        Potential amp.        0.0446 Ry
        Total length         65.3755 bohr
 

     total cpu time spent up to now is      146.3 secs

     total energy              =   -8190.07124721 Ry
     estimated scf accuracy    <      32.60924888 Ry

     iteration #  2     ecut=    62.47 Ry     beta= 0.15
     Davidson diagonalization with overlap
     ethr =  1.00E-02,  avg # of iterations =  1.0
 
     Adding external electric field

     Computed dipole along edir(3) : 
        Dipole               -0.3515 Ry au,         -0.8935 Debye
        Dipole field         -0.0008 Ry au, 
 
        Potential amp.        0.1002 Ry
        Total length         65.3755 bohr
 

     total cpu time spent up to now is      218.7 secs

     total energy              =   -8186.89473642 Ry
     estimated scf accuracy    <      28.43684672 Ry

     iteration #  3     ecut=    62.47 Ry     beta= 0.15
     Davidson diagonalization with overlap
     ethr =  1.00E-02,  avg # of iterations =  2.0
 
     Adding external electric field

     Computed dipole along edir(3) : 
        Dipole               -0.2649 Ry au,         -0.6732 Debye
        Dipole field         -0.0006 Ry au, 
 
        Potential amp.        0.0755 Ry
        Total length         65.3755 bohr
 

     total cpu time spent up to now is      303.4 secs

     total energy              =   -8187.97941253 Ry
     estimated scf accuracy    <      31.64309743 Ry

     iteration #  4     ecut=    62.47 Ry     beta= 0.15
     Davidson diagonalization with overlap
     ethr =  1.00E-02,  avg # of iterations =  1.0
 
     Adding external electric field

     Computed dipole along edir(3) : 
        Dipole               -0.2539 Ry au,         -0.6454 Debye
        Dipole field         -0.0006 Ry au, 
 
        Potential amp.        0.0724 Ry
        Total length         65.3755 bohr
 

     total cpu time spent up to now is      375.9 secs

     total energy              =   -8188.95610239 Ry
     estimated scf accuracy    <       3.33865093 Ry

     iteration #  5     ecut=    62.47 Ry     beta= 0.15
     Davidson diagonalization with overlap
     ethr =  1.40E-03,  avg # of iterations =  1.0
 
     Adding external electric field

     Computed dipole along edir(3) : 
        Dipole               -0.3049 Ry au,         -0.7750 Debye
        Dipole field         -0.0007 Ry au, 
 
        Potential amp.        0.0869 Ry
        Total length         65.3755 bohr
 

     total cpu time spent up to now is      448.5 secs

     total energy              =   -8188.97014491 Ry
     estimated scf accuracy    <       3.29189253 Ry

     iteration #  6     ecut=    62.47 Ry     beta= 0.15
     Davidson diagonalization with overlap
     ethr =  1.38E-03,  avg # of iterations =  1.6
 
     Adding external electric field

     Computed dipole along edir(3) : 
        Dipole               -0.4954 Ry au,         -1.2591 Debye
        Dipole field         -0.0011 Ry au, 
 
        Potential amp.        0.1412 Ry
        Total length         65.3755 bohr
 

     total cpu time spent up to now is      525.5 secs

     total energy              =   -8188.73660972 Ry
     estimated scf accuracy    <      13.73667613 Ry

     iteration #  7     ecut=    62.47 Ry     beta= 0.15
     Davidson diagonalization with overlap
     ethr =  1.38E-03,  avg # of iterations =  1.0
 
     Adding external electric field

     Computed dipole along edir(3) : 
        Dipole               -0.5157 Ry au,         -1.3107 Debye
        Dipole field         -0.0011 Ry au, 
 
        Potential amp.        0.1470 Ry
        Total length         65.3755 bohr
 

     total cpu time spent up to now is      598.0 secs

     total energy              =   -8188.84057315 Ry
     estimated scf accuracy    <       8.00681758 Ry

     iteration #  8     ecut=    62.47 Ry     beta= 0.15
     Davidson diagonalization with overlap
     ethr =  1.38E-03,  avg # of iterations =  1.0
 
     Adding external electric field

     Computed dipole along edir(3) : 
        Dipole               -0.8206 Ry au,         -2.0857 Debye
        Dipole field         -0.0018 Ry au, 
 
        Potential amp.        0.2339 Ry
        Total length         65.3755 bohr
 

     total cpu time spent up to now is      670.5 secs

     total energy              =   -8188.69140394 Ry
     estimated scf accuracy    <       9.38684616 Ry

     iteration #  9     ecut=    62.47 Ry     beta= 0.15
     Davidson diagonalization with overlap
     ethr =  1.38E-03,  avg # of iterations =  1.8
 
     Adding external electric field

     Computed dipole along edir(3) : 
        Dipole               -1.0477 Ry au,         -2.6630 Debye
        Dipole field         -0.0023 Ry au, 
 
        Potential amp.        0.2986 Ry
        Total length         65.3755 bohr
 

     total cpu time spent up to now is      748.2 secs

     total energy              =   -8188.85140724 Ry
     estimated scf accuracy    <       2.15757161 Ry

     iteration # 10     ecut=    62.47 Ry     beta= 0.15
     Davidson diagonalization with overlap
     ethr =  9.07E-04,  avg # of iterations =  2.2
 
     Adding external electric field

     Computed dipole along edir(3) : 
        Dipole               -1.0827 Ry au,         -2.7520 Debye
        Dipole field         -0.0024 Ry au, 
 
        Potential amp.        0.3086 Ry
        Total length         65.3755 bohr
 

     total cpu time spent up to now is      827.7 secs

     total energy              =   -8188.93073175 Ry
     estimated scf accuracy    <       2.34005022 Ry

     iteration # 11     ecut=    62.47 Ry     beta= 0.15
     Davidson diagonalization with overlap
     ethr =  9.07E-04,  avg # of iterations =  1.0

     negative rho (up, down):  1.151E-05 0.000E+00
 
     Adding external electric field

     Computed dipole along edir(3) : 
        Dipole               -1.2050 Ry au,         -3.0627 Debye
        Dipole field         -0.0026 Ry au, 
 
        Potential amp.        0.3434 Ry
        Total length         65.3755 bohr
 

     total cpu time spent up to now is      900.6 secs

     total energy              =   -8188.74832592 Ry
     estimated scf accuracy    <       2.75925375 Ry

     iteration # 12     ecut=    62.47 Ry     beta= 0.15
     Davidson diagonalization with overlap
     ethr =  9.07E-04,  avg # of iterations =  1.0

     negative rho (up, down):  5.918E-03 0.000E+00
 
     Adding external electric field

     Computed dipole along edir(3) : 
        Dipole               -1.3284 Ry au,         -3.3765 Debye
        Dipole field         -0.0029 Ry au, 
 
        Potential amp.        0.3786 Ry
        Total length         65.3755 bohr
 

     total cpu time spent up to now is      973.3 secs

     total energy              =   -8188.77596528 Ry
     estimated scf accuracy    <       1.95719193 Ry

     iteration # 13     ecut=    62.47 Ry     beta= 0.15
     Davidson diagonalization with overlap
     ethr =  8.22E-04,  avg # of iterations =  1.0
 
     Adding external electric field

     Computed dipole along edir(3) : 
        Dipole               -1.1449 Ry au,         -2.9099 Debye
        Dipole field         -0.0025 Ry au, 
 
        Potential amp.        0.3263 Ry
        Total length         65.3755 bohr
 

     total cpu time spent up to now is     1045.8 secs

     total energy              =   -8188.68950423 Ry
     estimated scf accuracy    <       1.67395905 Ry

     iteration # 14     ecut=    62.47 Ry     beta= 0.15
     Davidson diagonalization with overlap
     ethr =  7.03E-04,  avg # of iterations =  1.1
 
     Adding external electric field

     Computed dipole along edir(3) : 
        Dipole               -1.2493 Ry au,         -3.1753 Debye
        Dipole field         -0.0027 Ry au, 
 
        Potential amp.        0.3560 Ry
        Total length         65.3755 bohr
 

     total cpu time spent up to now is     1118.7 secs

     total energy              =   -8188.69879819 Ry
     estimated scf accuracy    <       0.57532742 Ry

     iteration # 15     ecut=    62.47 Ry     beta= 0.15
     Davidson diagonalization with overlap
     ethr =  2.42E-04,  avg # of iterations =  3.2
 
     Adding external electric field

     Computed dipole along edir(3) : 
        Dipole               -1.0905 Ry au,         -2.7717 Debye
        Dipole field         -0.0024 Ry au, 
 
        Potential amp.        0.3108 Ry
        Total length         65.3755 bohr
 

     total cpu time spent up to now is     1200.7 secs

     total energy              =   -8188.71200327 Ry
     estimated scf accuracy    <       0.22541713 Ry

     iteration # 16     ecut=    62.47 Ry     beta= 0.15
     Davidson diagonalization with overlap
     ethr =  9.47E-05,  avg # of iterations =  8.0
 
     Adding external electric field

     Computed dipole along edir(3) : 
        Dipole               -1.0247 Ry au,         -2.6044 Debye
        Dipole field         -0.0022 Ry au, 
 
        Potential amp.        0.2920 Ry
        Total length         65.3755 bohr
 

     total cpu time spent up to now is     1297.5 secs

     total energy              =   -8188.71058184 Ry
     estimated scf accuracy    <       0.57994642 Ry

     iteration # 17     ecut=    62.47 Ry     beta= 0.15
     Davidson diagonalization with overlap
     ethr =  9.47E-05,  avg # of iterations =  1.2
 
     Adding external electric field

     Computed dipole along edir(3) : 
        Dipole               -1.1691 Ry au,         -2.9717 Debye
        Dipole field         -0.0025 Ry au, 
 
        Potential amp.        0.3332 Ry
        Total length         65.3755 bohr
 

     total cpu time spent up to now is     1371.3 secs

     total energy              =   -8188.70235005 Ry
     estimated scf accuracy    <       0.55939977 Ry

     iteration # 18     ecut=    62.47 Ry     beta= 0.15
     Davidson diagonalization with overlap
     ethr =  9.47E-05,  avg # of iterations =  4.2

     negative rho (up, down):  3.026E-07 0.000E+00
 
     Adding external electric field

     Computed dipole along edir(3) : 
        Dipole               -1.1002 Ry au,         -2.7965 Debye
        Dipole field         -0.0024 Ry au, 
 
        Potential amp.        0.3136 Ry
        Total length         65.3755 bohr
 

     total cpu time spent up to now is     1454.7 secs

     total energy              =   -8188.69794077 Ry
     estimated scf accuracy    <       0.38697971 Ry

     iteration # 19     ecut=    62.47 Ry     beta= 0.15
     Davidson diagonalization with overlap
     ethr =  9.47E-05,  avg # of iterations =  2.4

     negative rho (up, down):  3.333E-03 0.000E+00
 
     Adding external electric field

     Computed dipole along edir(3) : 
        Dipole               -0.9344 Ry au,         -2.3750 Debye
        Dipole field         -0.0020 Ry au, 
 
        Potential amp.        0.2663 Ry
        Total length         65.3755 bohr
 

     total cpu time spent up to now is     1533.5 secs

     total energy              =   -8188.68594987 Ry
     estimated scf accuracy    <       0.53372319 Ry

     iteration # 20     ecut=    62.47 Ry     beta= 0.15
     Davidson diagonalization with overlap
     ethr =  9.47E-05,  avg # of iterations =  1.9

     negative rho (up, down):  7.128E-03 0.000E+00
 
     Adding external electric field

     Computed dipole along edir(3) : 
        Dipole               -0.8274 Ry au,         -2.1031 Debye
        Dipole field         -0.0018 Ry au, 
 
        Potential amp.        0.2358 Ry
        Total length         65.3755 bohr
 

     total cpu time spent up to now is     1612.2 secs

     total energy              =   -8188.67757393 Ry
     estimated scf accuracy    <       0.43447964 Ry

     iteration # 21     ecut=    62.47 Ry     beta= 0.15
     Davidson diagonalization with overlap
     ethr =  9.47E-05,  avg # of iterations =  2.2

     negative rho (up, down):  2.978E-03 0.000E+00
 
     Adding external electric field

     Computed dipole along edir(3) : 
        Dipole               -0.6944 Ry au,         -1.7651 Debye
        Dipole field         -0.0015 Ry au, 
 
        Potential amp.        0.1979 Ry
        Total length         65.3755 bohr
 

     total cpu time spent up to now is     1689.4 secs

     total energy              =   -8188.68375710 Ry
     estimated scf accuracy    <       0.04791542 Ry

     iteration # 22     ecut=    62.47 Ry     beta= 0.15
     Davidson diagonalization with overlap
     c_bands:  1 eigenvalues not converged
     c_bands:  1 eigenvalues not converged
     ethr =  2.01E-05,  avg # of iterations =  7.4

     negative rho (up, down):  1.171E-02 0.000E+00
 
     Adding external electric field

     Computed dipole along edir(3) : 
        Dipole               -0.6188 Ry au,         -1.5728 Debye
        Dipole field         -0.0013 Ry au, 
 
        Potential amp.        0.1763 Ry
        Total length         65.3755 bohr
 

     total cpu time spent up to now is     1785.5 secs

     total energy              =   -8188.68345891 Ry
     estimated scf accuracy    <       0.20353144 Ry

     iteration # 23     ecut=    62.47 Ry     beta= 0.15
     Davidson diagonalization with overlap
     ethr =  2.01E-05,  avg # of iterations =  4.9

     negative rho (up, down):  2.566E-02 0.000E+00
 
     Adding external electric field

     Computed dipole along edir(3) : 
        Dipole               -0.6467 Ry au,         -1.6437 Debye
        Dipole field         -0.0014 Ry au, 
 
        Potential amp.        0.1843 Ry
        Total length         65.3755 bohr
 

     total cpu time spent up to now is     1872.5 secs

     total energy              =   -8188.67951842 Ry
     estimated scf accuracy    <       0.12798003 Ry

     iteration # 24     ecut=    62.47 Ry     beta= 0.15
     Davidson diagonalization with overlap
     ethr =  2.01E-05,  avg # of iterations =  8.8

     negative rho (up, down):  2.235E-02 0.000E+00
 
     Adding external electric field

     Computed dipole along edir(3) : 
        Dipole               -0.5545 Ry au,         -1.4093 Debye
        Dipole field         -0.0012 Ry au, 
 
        Potential amp.        0.1580 Ry
        Total length         65.3755 bohr
 

     total cpu time spent up to now is     1976.5 secs

     total energy              =   -8188.67751167 Ry
     estimated scf accuracy    <       0.11933350 Ry

     iteration # 25     ecut=    62.47 Ry     beta= 0.15
     Davidson diagonalization with overlap
     ethr =  2.01E-05,  avg # of iterations =  2.4

     negative rho (up, down):  2.783E-02 0.000E+00
 
     Adding external electric field

     Computed dipole along edir(3) : 
        Dipole               -0.5500 Ry au,         -1.3981 Debye
        Dipole field         -0.0012 Ry au, 
 
        Potential amp.        0.1568 Ry
        Total length         65.3755 bohr
 

     total cpu time spent up to now is     2056.3 secs

     total energy              =   -8188.67828919 Ry
     estimated scf accuracy    <       0.00388044 Ry

     iteration # 26     ecut=    62.47 Ry     beta= 0.15
     Davidson diagonalization with overlap
     c_bands:  1 eigenvalues not converged
     c_bands:  1 eigenvalues not converged
     ethr =  1.63E-06,  avg # of iterations = 11.0

     negative rho (up, down):  1.117E-02 0.000E+00
 
     Adding external electric field

     Computed dipole along edir(3) : 
        Dipole               -0.5260 Ry au,         -1.3369 Debye
        Dipole field         -0.0011 Ry au, 
 
        Potential amp.        0.1499 Ry
        Total length         65.3755 bohr
 

     total cpu time spent up to now is     2183.8 secs

     total energy              =   -8188.67755634 Ry
     estimated scf accuracy    <       0.00374431 Ry

     iteration # 27     ecut=    62.47 Ry     beta= 0.15
     Davidson diagonalization with overlap
     ethr =  1.57E-06,  avg # of iterations =  8.6

     negative rho (up, down):  9.922E-03 0.000E+00
 
     Adding external electric field

     Computed dipole along edir(3) : 
        Dipole               -0.5944 Ry au,         -1.5107 Debye
        Dipole field         -0.0013 Ry au, 
 
        Potential amp.        0.1694 Ry
        Total length         65.3755 bohr
 

     total cpu time spent up to now is     2306.8 secs

     total energy              =   -8188.67713867 Ry
     estimated scf accuracy    <       0.02022163 Ry

     iteration # 28     ecut=    62.47 Ry     beta= 0.15
     Davidson diagonalization with overlap
     ethr =  1.57E-06,  avg # of iterations =  8.0

     negative rho (up, down):  9.022E-03 0.000E+00
 
     Adding external electric field

     Computed dipole along edir(3) : 
        Dipole               -0.5855 Ry au,         -1.4881 Debye
        Dipole field         -0.0013 Ry au, 
 
        Potential amp.        0.1669 Ry
        Total length         65.3755 bohr
 

     total cpu time spent up to now is     2421.3 secs

     total energy              =   -8188.67780147 Ry
     estimated scf accuracy    <       0.00045378 Ry

     iteration # 29     ecut=    62.47 Ry     beta= 0.15
     Davidson diagonalization with overlap
     ethr =  1.91E-07,  avg # of iterations =  1.8

     negative rho (up, down):  4.451E-03 0.000E+00
 
     Adding external electric field

     Computed dipole along edir(3) : 
        Dipole               -0.6042 Ry au,         -1.5358 Debye
        Dipole field         -0.0013 Ry au, 
 
        Potential amp.        0.1722 Ry
        Total length         65.3755 bohr
 

     total cpu time spent up to now is     2498.5 secs

     total energy              =   -8188.67771700 Ry
     estimated scf accuracy    <       0.00056223 Ry

     iteration # 30     ecut=    62.47 Ry     beta= 0.15
     Davidson diagonalization with overlap
     c_bands:  1 eigenvalues not converged
     ethr =  1.91E-07,  avg # of iterations =  6.1

     negative rho (up, down):  2.207E-03 0.000E+00
 
     Adding external electric field

     Computed dipole along edir(3) : 
        Dipole               -0.5906 Ry au,         -1.5011 Debye
        Dipole field         -0.0013 Ry au, 
 
        Potential amp.        0.1683 Ry
        Total length         65.3755 bohr
 

     total cpu time spent up to now is     2598.1 secs

     total energy              =   -8188.67774808 Ry
     estimated scf accuracy    <       0.00130875 Ry

     iteration # 31     ecut=    62.47 Ry     beta= 0.15
     Davidson diagonalization with overlap
     c_bands:  1 eigenvalues not converged
     c_bands:  1 eigenvalues not converged
     c_bands:  1 eigenvalues not converged
     ethr =  1.91E-07,  avg # of iterations =  9.0

     negative rho (up, down):  4.658E-04 0.000E+00
 
     Adding external electric field

     Computed dipole along edir(3) : 
        Dipole               -0.5939 Ry au,         -1.5095 Debye
        Dipole field         -0.0013 Ry au, 
 
        Potential amp.        0.1692 Ry
        Total length         65.3755 bohr
 

     total cpu time spent up to now is     2718.5 secs

     total energy              =   -8188.67778479 Ry
     estimated scf accuracy    <       0.00043002 Ry

     iteration # 32     ecut=    62.47 Ry     beta= 0.15
     Davidson diagonalization with overlap
     c_bands:  1 eigenvalues not converged
     c_bands:  1 eigenvalues not converged
     ethr =  1.81E-07,  avg # of iterations =  5.3

     negative rho (up, down):  1.242E-04 0.000E+00
 
     Adding external electric field

     Computed dipole along edir(3) : 
        Dipole               -0.5874 Ry au,         -1.4929 Debye
        Dipole field         -0.0013 Ry au, 
 
        Potential amp.        0.1674 Ry
        Total length         65.3755 bohr
 

     total cpu time spent up to now is     2805.8 secs

     total energy              =   -8188.67781798 Ry
     estimated scf accuracy    <       0.00001238 Ry

     iteration # 33     ecut=    62.47 Ry     beta= 0.15
     Davidson diagonalization with overlap
     c_bands:  1 eigenvalues not converged
     c_bands:  1 eigenvalues not converged
     ethr =  5.20E-09,  avg # of iterations =  6.6

     negative rho (up, down):  1.169E-04 0.000E+00
 
     Adding external electric field

     Computed dipole along edir(3) : 
        Dipole               -0.5849 Ry au,         -1.4867 Debye
        Dipole field         -0.0013 Ry au, 
 
        Potential amp.        0.1667 Ry
        Total length         65.3755 bohr
 

     total cpu time spent up to now is     2912.7 secs

     total energy              =   -8188.67781876 Ry
     estimated scf accuracy    <       0.00001534 Ry

     iteration # 34     ecut=    62.47 Ry     beta= 0.15
     Davidson diagonalization with overlap
     ethr =  5.20E-09,  avg # of iterations =  1.8

     negative rho (up, down):  9.763E-05 0.000E+00
 
     Adding external electric field

     Computed dipole along edir(3) : 
        Dipole               -0.5861 Ry au,         -1.4897 Debye
        Dipole field         -0.0013 Ry au, 
 
        Potential amp.        0.1670 Ry
        Total length         65.3755 bohr
 

     total cpu time spent up to now is     2990.7 secs

     total energy              =   -8188.67781942 Ry
     estimated scf accuracy    <       0.00001289 Ry

     iteration # 35     ecut=    62.47 Ry     beta= 0.15
     Davidson diagonalization with overlap
     ethr =  5.20E-09,  avg # of iterations =  1.0

     negative rho (up, down):  6.167E-05 0.000E+00
 
     Adding external electric field

     Computed dipole along edir(3) : 
        Dipole               -0.5876 Ry au,         -1.4937 Debye
        Dipole field         -0.0013 Ry au, 
 
        Potential amp.        0.1675 Ry
        Total length         65.3755 bohr
 

     total cpu time spent up to now is     3062.8 secs

     total energy              =   -8188.67781966 Ry
     estimated scf accuracy    <       0.00000708 Ry

     iteration # 36     ecut=    62.47 Ry     beta= 0.15
     Davidson diagonalization with overlap
     ethr =  2.97E-09,  avg # of iterations =  1.6

     negative rho (up, down):  4.565E-05 0.000E+00
 
     Adding external electric field

     Computed dipole along edir(3) : 
        Dipole               -0.5849 Ry au,         -1.4866 Debye
        Dipole field         -0.0013 Ry au, 
 
        Potential amp.        0.1667 Ry
        Total length         65.3755 bohr
 

     total cpu time spent up to now is     3139.4 secs

     total energy              =   -8188.67781951 Ry
     estimated scf accuracy    <       0.00000742 Ry

     iteration # 37     ecut=    62.47 Ry     beta= 0.15
     Davidson diagonalization with overlap
     ethr =  2.97E-09,  avg # of iterations =  1.0

     negative rho (up, down):  1.144E-04 0.000E+00
 
     Adding external electric field

     Computed dipole along edir(3) : 
        Dipole               -0.5854 Ry au,         -1.4879 Debye
        Dipole field         -0.0013 Ry au, 
 
        Potential amp.        0.1668 Ry
        Total length         65.3755 bohr
 

     total cpu time spent up to now is     3211.7 secs

     total energy              =   -8188.67781952 Ry
     estimated scf accuracy    <       0.00000813 Ry

     iteration # 38     ecut=    62.47 Ry     beta= 0.15
     Davidson diagonalization with overlap
     ethr =  2.97E-09,  avg # of iterations =  1.1

     negative rho (up, down):  1.085E-04 0.000E+00
 
     Adding external electric field

     Computed dipole along edir(3) : 
        Dipole               -0.5858 Ry au,         -1.4889 Debye
        Dipole field         -0.0013 Ry au, 
 
        Potential amp.        0.1669 Ry
        Total length         65.3755 bohr
 

     total cpu time spent up to now is     3284.4 secs

     total energy              =   -8188.67781964 Ry
     estimated scf accuracy    <       0.00000334 Ry

     iteration # 39     ecut=    62.47 Ry     beta= 0.15
     Davidson diagonalization with overlap
     ethr =  1.40E-09,  avg # of iterations =  1.0

     negative rho (up, down):  9.623E-05 0.000E+00
 
     Adding external electric field

     Computed dipole along edir(3) : 
        Dipole               -0.5862 Ry au,         -1.4900 Debye
        Dipole field         -0.0013 Ry au, 
 
        Potential amp.        0.1671 Ry
        Total length         65.3755 bohr
 

     total cpu time spent up to now is     3356.4 secs

     total energy              =   -8188.67781972 Ry
     estimated scf accuracy    <       0.00000105 Ry

     iteration # 40     ecut=    62.47 Ry     beta= 0.15
     Davidson diagonalization with overlap
     ethr =  4.41E-10,  avg # of iterations =  1.0

     negative rho (up, down):  1.050E-04 0.000E+00
 
     Adding external electric field

     Computed dipole along edir(3) : 
        Dipole               -0.5943 Ry au,         -1.5105 Debye
        Dipole field         -0.0013 Ry au, 
 
        Potential amp.        0.1694 Ry
        Total length         65.3755 bohr
 

     total cpu time spent up to now is     3427.6 secs

     End of self-consistent calculation

          k = 0.0000 0.0000 0.0000 ( 48041 PWs)   bands (ev):

   -39.8160 -38.8526 -38.4209 -38.3400 -38.2400 -38.2244 -38.1919 -38.1519
   -38.1372 -38.1203 -38.1172 -38.0946 -38.0870 -38.0806 -16.7431 -16.6421
   -16.4744 -15.9232 -15.8426 -15.7301 -15.6799 -15.6459 -15.5785 -15.5774
   -15.5443 -15.4836 -15.4536 -15.4035 -15.3337 -15.3276 -15.2971 -15.2817
   -15.2041 -15.1957 -15.1753 -15.1689 -15.1594 -15.1564 -15.1397 -15.1251
   -15.1082 -15.0845 -15.0706 -15.0483 -15.0448 -15.0387 -15.0043 -14.9596
   -14.9011 -14.8441 -14.7772 -14.7649 -14.6887 -14.6131 -14.5966 -14.5519
    -4.6031  -4.4052  -4.0286  -3.5426  -2.9928  -2.4235  -1.9974  -1.8788
    -1.8580  -1.5638  -1.3904  -1.1558  -0.9589  -0.6499  -0.5662  -0.1926
    -0.0631   0.1586   0.4516   0.5801   0.6740   1.2575   1.9656   2.3783
     2.4039   2.5427   2.6192   2.7030   2.8538   2.9639   3.2101   3.3055
     3.4676   3.5152   3.6344   3.8877   3.9126   4.1129   4.2122   4.2406
     4.3332   4.5508   4.6271   4.6457   4.7166   4.7923   4.8576   4.9622
     4.9702   5.0672   5.1612   5.2227   5.2570   5.3149   5.3459   5.3948
     5.4088   5.5183   5.5250   5.5500   5.6600   5.7357   5.8503   5.8949
     5.9294   6.0531   6.3519   6.3936   6.8205   6.8348   7.0666   7.1588
     7.4628   7.7941   8.1343   8.5760   8.8882   9.0875   9.1144   9.5762
     9.6346   9.7465  10.1980  10.3898  10.5585  10.6249  10.8002  10.8951
    10.9864  11.1017  11.1247  11.1403  11.1531

          k =-0.0412 0.0000 0.1049 ( 48067 PWs)   bands (ev):

   -39.8160 -38.8525 -38.4208 -38.3399 -38.2396 -38.2239 -38.1916 -38.1517
   -38.1375 -38.1203 -38.1174 -38.0948 -38.0876 -38.0806 -16.7432 -16.6430
   -16.4760 -15.9260 -15.8430 -15.7344 -15.6834 -15.6510 -15.5811 -15.5794
   -15.5437 -15.4839 -15.4553 -15.4018 -15.3355 -15.3284 -15.3045 -15.2901
   -15.2143 -15.2024 -15.1958 -15.1886 -15.1674 -15.1577 -15.1437 -15.1339
   -15.1046 -15.1001 -15.0659 -15.0479 -15.0221 -15.0051 -14.9779 -14.9594
   -14.9003 -14.8462 -14.7760 -14.7632 -14.6874 -14.6117 -14.5951 -14.5505
    -4.5239  -4.3301  -3.9603  -3.4844  -2.9499  -2.4045  -1.9425  -1.8893
    -1.8046  -1.5133  -1.4127  -1.1100  -0.9502  -0.6110  -0.5158  -0.1636
    -0.0340   0.1165   0.3579   0.5575   0.5972   1.2632   1.9654   2.0352
     2.3308   2.7054   2.7180   2.7813   2.8303   3.0181   3.1856   3.3134
     3.4375   3.4792   3.6224   3.7224   3.9780   4.0318   4.1721   4.2643
     4.3192   4.4500   4.4842   4.6084   4.6655   4.7646   4.7909   4.9480
     4.9978   5.0485   5.1817   5.2474   5.2819   5.2991   5.3634   5.3771
     5.3919   5.4481   5.5166   5.6322   5.7025   5.7458   5.8375   5.9077
     5.9645   6.1468   6.3884   6.5177   6.7966   6.9542   7.1050   7.2095
     7.5583   7.8342   8.2115   8.6098   8.9399   9.0595   9.1207   9.5313
     9.5657   9.7050   9.9586  10.0871  10.1859  10.2064  10.2769  10.4659
    10.5405  10.6454  10.6588  10.7002  10.9605

          k =-0.0825 0.0000 0.2098 ( 48087 PWs)   bands (ev):

   -39.8159 -38.8524 -38.4206 -38.3396 -38.2384 -38.2227 -38.1905 -38.1512
   -38.1383 -38.1205 -38.1181 -38.0955 -38.0890 -38.0810 -16.7434 -16.6456
   -16.4805 -15.9337 -15.8440 -15.7458 -15.6929 -15.6660 -15.5883 -15.5835
   -15.5429 -15.4851 -15.4599 -15.3977 -15.3422 -15.3314 -15.3307 -15.3264
   -15.2686 -15.2425 -15.2026 -15.1961 -15.1930 -15.1623 -15.1544 -15.1254
   -15.1123 -15.0727 -15.0467 -15.0281 -15.0081 -14.9753 -14.9575 -14.9256
   -14.8979 -14.8522 -14.7729 -14.7586 -14.6838 -14.6079 -14.5909 -14.5467
    -4.2960  -4.1142  -3.7647  -3.3192  -2.8319  -2.3554  -1.9065  -1.7826
    -1.6495  -1.4395  -1.3676  -0.9794  -0.9230  -0.5028  -0.4143  -0.1012
    -0.0295   0.0435   0.1308   0.2987   0.6392   1.2752   1.7170   1.9645
     2.1399   2.7129   2.7213   2.8588   2.9343   2.9791   3.0058   3.1193
     3.3142   3.4128   3.5116   3.6077   3.7658   3.9744   4.1859   4.2578
     4.3299   4.3326   4.3932   4.4759   4.5792   4.6899   4.8508   4.9325
     5.0191   5.0585   5.1037   5.1668   5.2421   5.2983   5.3541   5.3592
     5.4343   5.4502   5.4828   5.5182   5.6495   5.7244   5.9236   6.0208
     6.2399   6.3512   6.5182   6.7422   6.9073   7.1503   7.2578   7.3775
     7.8178   7.8984   8.4083   8.6302   8.8967   9.0121   9.0243   9.1169
     9.1857   9.3021   9.4436   9.5157   9.6716   9.7983   9.8324   9.9709
    10.0205  10.2221  10.3034  10.4788  10.5455

          k =-0.1237 0.0000 0.3147 ( 48150 PWs)   bands (ev):

   -39.8158 -38.8522 -38.4203 -38.3391 -38.2368 -38.2210 -38.1890 -38.1504
   -38.1394 -38.1210 -38.1187 -38.0964 -38.0905 -38.0819 -16.7437 -16.6491
   -16.4869 -15.9441 -15.8453 -15.7610 -15.7056 -15.6886 -15.5981 -15.5862
   -15.5423 -15.4881 -15.4663 -15.3978 -15.3886 -15.3834 -15.3462 -15.3338
   -15.3235 -15.2752 -15.2246 -15.1967 -15.1941 -15.1682 -15.1600 -15.1108
   -15.0787 -15.0453 -15.0413 -15.0136 -14.9969 -14.9537 -14.9429 -14.8949
   -14.8922 -14.8604 -14.7687 -14.7523 -14.6790 -14.6028 -14.5853 -14.5415
    -3.9490  -3.7864  -3.4707  -3.0785  -2.6736  -2.2974  -1.9022  -1.5328
    -1.4229  -1.4090  -1.1455  -0.8677  -0.7871  -0.3534  -0.3362  -0.3006
    -0.1791  -0.0107   0.0675   0.1389   0.6817   1.2826   1.5038   1.9625
     2.0246   2.2566   2.4739   2.6924   2.7252   2.8031   2.8753   2.9691
     3.1978   3.3399   3.4593   3.5572   3.5981   3.7756   3.8983   4.1054
     4.2736   4.3702   4.4174   4.6220   4.6322   4.7491   4.7845   4.8154
     4.9484   5.0370   5.0700   5.1654   5.2513   5.2831   5.3388   5.3825
     5.4052   5.4492   5.5252   5.6384   5.6992   5.7231   6.0280   6.1438
     6.2904   6.7026   6.7733   6.9859   7.0793   7.3424   7.4666   7.6684
     7.7906   8.1235   8.1697   8.5402   8.5800   8.6704   8.8010   8.8671
     8.9761   9.0351   9.1171   9.2094   9.4402   9.4460   9.5821   9.7025
     9.8640   9.9412   9.9662  10.1027  10.1934

          k =-0.1650 0.0000 0.4196 ( 48144 PWs)   bands (ev):

   -39.8158 -38.8520 -38.4200 -38.3387 -38.2352 -38.2193 -38.1875 -38.1496
   -38.1406 -38.1217 -38.1191 -38.0975 -38.0915 -38.0834 -16.7439 -16.6527
   -16.4938 -15.9544 -15.8464 -15.7759 -15.7179 -15.7136 -15.6076 -15.5860
   -15.5416 -15.4931 -15.4726 -15.4576 -15.4371 -15.3882 -15.3684 -15.3532
   -15.3369 -15.3003 -15.2367 -15.1974 -15.1958 -15.1729 -15.1552 -15.0889
   -15.0441 -15.0419 -15.0209 -15.0085 -14.9735 -14.9488 -14.9256 -14.8920
   -14.8794 -14.8687 -14.7646 -14.7461 -14.6743 -14.5978 -14.5798 -14.5364
    -3.5331  -3.3970  -3.1318  -2.8251  -2.5418  -2.2533  -1.8625  -1.3588
    -1.2230  -1.1155  -0.8860  -0.7848  -0.5920  -0.5811  -0.4393  -0.2568
    -0.2168  -0.1647   0.0311   0.2051   0.6984   1.2781   1.4303   1.6559
     1.9051   1.9592   2.0115   2.3902   2.4590   2.6629   2.7398   2.7531
     2.9378   3.1041   3.2531   3.4208   3.6041   3.6354   3.8829   4.1351
     4.2057   4.3714   4.3775   4.4869   4.5335   4.6544   4.7242   4.8005
     5.0214   5.0853   5.1017   5.2122   5.2867   5.3240   5.3699   5.4023
     5.4611   5.4802   5.6728   5.7065   5.8836   6.0483   6.0728   6.3368
     6.4133   6.6153   6.8989   7.1666   7.2602   7.4639   7.5293   7.5577
     7.8144   8.0608   8.1644   8.2611   8.5117   8.6212   8.6475   8.7433
     8.8957   9.0070   9.1069   9.1624   9.3766   9.3968   9.4962   9.5252
     9.6323   9.7087   9.8408   9.9331  10.0213

          k =-0.2062 0.0000 0.5245 ( 48175 PWs)   bands (ev):

   -39.8157 -38.8519 -38.4198 -38.3384 -38.2340 -38.2180 -38.1864 -38.1490
   -38.1414 -38.1223 -38.1193 -38.0985 -38.0918 -38.0849 -16.7440 -16.6552
   -16.4990 -15.9619 -15.8472 -15.7865 -15.7331 -15.7268 -15.6145 -15.5839
   -15.5408 -15.5025 -15.4974 -15.4772 -15.4739 -15.3982 -15.3859 -15.3593
   -15.3393 -15.3173 -15.2420 -15.1989 -15.1980 -15.1710 -15.1510 -15.0723
   -15.0433 -15.0262 -15.0134 -14.9817 -14.9545 -14.9442 -14.9191 -14.8900
   -14.8847 -14.8749 -14.7617 -14.7417 -14.6709 -14.5942 -14.5757 -14.5327
    -3.1226  -3.0240  -2.8412  -2.6748  -2.5113  -2.2268  -1.8076  -1.2820
    -0.9108  -0.8308  -0.7920  -0.7012  -0.6644  -0.6094  -0.4443  -0.3163
    -0.1922  -0.1587  -0.0204   0.2144   0.6886   1.2048   1.2667   1.4860
     1.5417   1.9558   1.9897   2.0522   2.0923   2.4348   2.5951   2.6569
     2.7518   2.8942   2.9954   3.2738   3.5759   3.6366   3.8972   3.9781
     4.0846   4.2710   4.4402   4.5149   4.5880   4.6107   4.7496   4.8414
     4.8727   5.0116   5.1252   5.2366   5.2990   5.4649   5.4998   5.5622
     5.5926   5.6105   5.7059   5.8662   5.9973   6.0740   6.3044   6.3098
     6.5334   6.6791   6.7193   6.9950   7.1952   7.2282   7.7047   7.7531
     7.9005   8.1717   8.3128   8.3377   8.4849   8.5619   8.7772   8.8374
     8.9066   9.0181   9.0611   9.2382   9.2692   9.4073   9.4574   9.4935
     9.6057   9.6098   9.6597   9.7866   9.9380

          k = 0.2474 0.0000-0.6294 ( 48150 PWs)   bands (ev):

   -39.8157 -38.8518 -38.4197 -38.3383 -38.2336 -38.2175 -38.1860 -38.1487
   -38.1418 -38.1226 -38.1193 -38.0988 -38.0917 -38.0856 -16.7441 -16.6562
   -16.5009 -15.9647 -15.8475 -15.7903 -15.7405 -15.7300 -15.6170 -15.5827
   -15.5404 -15.5175 -15.5008 -15.4864 -15.4789 -15.4085 -15.3856 -15.3612
   -15.3402 -15.3239 -15.2430 -15.2004 -15.1982 -15.1681 -15.1511 -15.0661
   -15.0430 -15.0282 -15.0031 -14.9709 -14.9468 -14.9401 -14.9134 -14.8959
   -14.8893 -14.8771 -14.7607 -14.7401 -14.6697 -14.5929 -14.5743 -14.5314
    -2.8631  -2.8064  -2.7537  -2.7240  -2.5320  -2.2163  -1.7813  -1.2468
    -0.8616  -0.7421  -0.6913  -0.6822  -0.6435  -0.5913  -0.4252  -0.3634
    -0.1623  -0.1582  -0.0710   0.2049   0.6796   1.0344   1.2607   1.3584
     1.6923   1.7943   1.8894   1.9544   2.1097   2.2435   2.4658   2.6966
     2.7394   2.7564   2.8964   3.2253   3.5530   3.6480   3.7744   3.9891
     4.0078   4.3246   4.4173   4.4723   4.6360   4.6575   4.7744   4.8421
     4.8651   4.9823   5.1206   5.1979   5.2991   5.5062   5.5433   5.6454
     5.6656   5.7399   5.7574   5.9360   6.0395   6.1293   6.1817   6.3670
     6.4976   6.5120   6.6906   7.0119   7.0867   7.4691   7.5643   7.8632
     7.9045   8.1872   8.3560   8.5296   8.7192   8.7695   8.8845   8.8950
     8.9270   8.9677   8.9976   9.1243   9.2030   9.2200   9.3412   9.4105
     9.4244   9.5970   9.7079   9.7564   9.9409

          k = 0.0206 0.0833-0.0525 ( 48032 PWs)   bands (ev):

   -39.8160 -38.8525 -38.4207 -38.3397 -38.2385 -38.2228 -38.1905 -38.1511
   -38.1384 -38.1204 -38.1182 -38.0956 -38.0885 -38.0818 -16.7456 -16.6392
   -16.4754 -15.9240 -15.8389 -15.7155 -15.6728 -15.6488 -15.6100 -15.5692
   -15.5676 -15.5257 -15.4306 -15.4222 -15.3398 -15.3000 -15.2843 -15.2647
   -15.2287 -15.1877 -15.1708 -15.1647 -15.1615 -15.1457 -15.1410 -15.1224
   -15.1139 -15.0868 -15.0738 -15.0494 -15.0418 -15.0096 -15.0011 -14.9606
   -14.8927 -14.8404 -14.7812 -14.7741 -14.6861 -14.6390 -14.5869 -14.5696
    -4.5485  -4.3532  -3.9811  -3.5008  -2.9584  -2.3991  -2.0147  -1.8920
    -1.8624  -1.6178  -1.3965  -1.2611  -0.9955  -0.8649  -0.3029  -0.0683
    -0.0139   0.2527   0.5087   0.5277   0.7241   1.1423   1.8156   2.2923
     2.4929   2.5610   2.6297   2.7680   2.9179   3.0494   3.2618   3.3233
     3.3575   3.6037   3.7095   3.8842   3.9148   4.0831   4.1828   4.2300
     4.3195   4.5059   4.6001   4.6551   4.6752   4.7561   4.8432   4.8727
     4.9794   5.0587   5.1576   5.2276   5.2384   5.2883   5.3133   5.3572
     5.3740   5.4670   5.4895   5.6144   5.6579   5.6912   5.8439   5.8712
     5.8920   6.0516   6.2793   6.3962   6.6961   6.7972   6.9958   7.1050
     7.3274   8.0968   8.3855   8.6812   8.9177   9.0840   9.1697   9.5209
     9.6136   9.7734  10.1421  10.2973  10.4635  10.5197  10.6002  10.6284
    10.7025  10.8050  10.8996  10.9748  11.0595

          k =-0.0206 0.0833 0.0525 ( 48032 PWs)   bands (ev):

   -39.8160 -38.8525 -38.4207 -38.3397 -38.2385 -38.2228 -38.1905 -38.1511
   -38.1384 -38.1204 -38.1182 -38.0956 -38.0885 -38.0818 -16.7456 -16.6392
   -16.4754 -15.9240 -15.8389 -15.7155 -15.6728 -15.6488 -15.6100 -15.5692
   -15.5676 -15.5257 -15.4306 -15.4222 -15.3398 -15.3000 -15.2843 -15.2647
   -15.2287 -15.1877 -15.1708 -15.1647 -15.1615 -15.1457 -15.1410 -15.1224
   -15.1139 -15.0868 -15.0738 -15.0494 -15.0418 -15.0096 -15.0011 -14.9606
   -14.8927 -14.8404 -14.7812 -14.7741 -14.6861 -14.6390 -14.5869 -14.5696
    -4.5485  -4.3532  -3.9811  -3.5008  -2.9584  -2.3991  -2.0147  -1.8920
    -1.8624  -1.6178  -1.3965  -1.2611  -0.9955  -0.8649  -0.3029  -0.0683
    -0.0139   0.2527   0.5087   0.5277   0.7241   1.1423   1.8156   2.2923
     2.4929   2.5610   2.6297   2.7680   2.9179   3.0494   3.2618   3.3233
     3.3575   3.6037   3.7095   3.8842   3.9148   4.0831   4.1827   4.2300
     4.3195   4.5059   4.6001   4.6551   4.6752   4.7561   4.8432   4.8727
     4.9794   5.0587   5.1576   5.2276   5.2384   5.2882   5.3133   5.3572
     5.3740   5.4670   5.4895   5.6144   5.6579   5.6912   5.8439   5.8712
     5.8920   6.0516   6.2793   6.3962   6.6961   6.7972   6.9958   7.1050
     7.3274   8.0968   8.3855   8.6812   8.9177   9.0840   9.1697   9.5209
     9.6136   9.7734  10.1421  10.2973  10.4635  10.5197  10.6002  10.6284
    10.7025  10.8050  10.8996  10.9748  11.0595

          k =-0.0619 0.0833 0.1574 ( 48060 PWs)   bands (ev):

   -39.8159 -38.8524 -38.4205 -38.3394 -38.2377 -38.2219 -38.1898 -38.1507
   -38.1390 -38.1207 -38.1186 -38.0960 -38.0895 -38.0820 -16.7458 -16.6410
   -16.4783 -15.9288 -15.8401 -15.7236 -15.6796 -15.6583 -15.6138 -15.5757
   -15.5683 -15.5235 -15.4322 -15.4201 -15.3428 -15.3152 -15.3027 -15.2673
   -15.2394 -15.2265 -15.2126 -15.1816 -15.1628 -15.1526 -15.1447 -15.1302
   -15.1207 -15.0893 -15.0475 -15.0409 -15.0023 -14.9977 -14.9611 -14.9502
   -14.8909 -14.8444 -14.7785 -14.7714 -14.6835 -14.6360 -14.5842 -14.5667
    -4.3940  -4.2068  -3.8482  -3.3883  -2.8773  -2.3664  -1.9198  -1.8911
    -1.7941  -1.5379  -1.4439  -1.2058  -0.9519  -0.7013  -0.3135  -0.0057
     0.0384   0.1881   0.3562   0.5193   0.5455   1.1606   1.8306   1.9802
     2.3214   2.5409   2.8233   2.9019   2.9627   3.0907   3.1011   3.2996
     3.3819   3.4495   3.6033   3.6873   3.8852   4.0796   4.1756   4.2205
     4.3084   4.3837   4.4252   4.4837   4.5662   4.7279   4.8129   4.8806
     4.9151   5.0496   5.0968   5.1753   5.2679   5.2834   5.3341   5.3599
     5.4079   5.4543   5.4974   5.5382   5.7015   5.7328   5.9005   5.9335
     6.0240   6.2936   6.3248   6.6541   6.7489   6.9481   7.1143   7.2418
     7.4070   8.1463   8.4029   8.7089   8.8548   9.0693   9.2069   9.3503
     9.4847   9.5833   9.6476   9.7815   9.9243   9.9970  10.0998  10.1750
    10.2604  10.3986  10.4286  10.5576  10.6882

          k =-0.1031 0.0833 0.2623 ( 48105 PWs)   bands (ev):

   -39.8159 -38.8522 -38.4203 -38.3391 -38.2363 -38.2204 -38.1885 -38.1501
   -38.1400 -38.1213 -38.1190 -38.0969 -38.0910 -38.0826 -16.7461 -16.6440
   -16.4837 -15.9372 -15.8420 -15.7373 -15.6910 -15.6765 -15.6191 -15.5850
   -15.5690 -15.5230 -15.4364 -15.4159 -15.3587 -15.3523 -15.3454 -15.2947
   -15.2712 -15.2591 -15.2209 -15.2120 -15.1654 -15.1595 -15.1487 -15.1228
   -15.1003 -15.0596 -15.0387 -15.0133 -15.0050 -14.9606 -14.9581 -14.9075
   -14.8880 -14.8515 -14.7737 -14.7669 -14.6791 -14.6310 -14.5795 -14.5618
    -4.1046  -3.9331  -3.6014  -3.1831  -2.7369  -2.3146  -1.9080  -1.7391
    -1.6290  -1.4611  -1.3918  -1.1090  -0.8548  -0.5352  -0.2742   0.0002
     0.0297   0.1140   0.1887   0.2877   0.5730   1.1795   1.7361   1.8551
     2.2007   2.5253   2.6027   2.7895   2.8498   2.9272   3.0100   3.1265
     3.2373   3.4105   3.4990   3.5482   3.7260   3.9108   4.0502   4.1191
     4.2708   4.3269   4.3724   4.5674   4.6037   4.7155   4.7802   4.7968
     4.8796   4.9921   5.0757   5.1330   5.2070   5.2641   5.3507   5.3917
     5.4583   5.4904   5.5117   5.5370   5.6013   5.7549   5.9776   6.0358
     6.3289   6.4612   6.6679   6.7402   7.0250   7.1365   7.3590   7.4624
     7.6224   7.9885   8.3116   8.5676   8.8149   8.8482   8.9735   9.1149
     9.1745   9.2081   9.3142   9.3900   9.5505   9.5999   9.7161   9.7625
     9.9114  10.0422  10.1408  10.2122  10.3343

          k =-0.1443 0.0833 0.3672 ( 48142 PWs)   bands (ev):

   -39.8158 -38.8520 -38.4200 -38.3386 -38.2346 -38.2186 -38.1869 -38.1493
   -38.1411 -38.1222 -38.1192 -38.0981 -38.0922 -38.0838 -16.7464 -16.6475
   -16.4903 -15.9469 -15.8439 -15.7527 -15.7045 -15.6994 -15.6245 -15.5914
   -15.5706 -15.5262 -15.4423 -15.4234 -15.4110 -15.4068 -15.3528 -15.3437
   -15.2870 -15.2756 -15.2317 -15.2155 -15.1710 -15.1621 -15.1498 -15.1017
   -15.0633 -15.0367 -15.0282 -15.0103 -14.9869 -14.9572 -14.9347 -14.8852
   -14.8848 -14.8599 -14.7679 -14.7621 -14.6740 -14.6254 -14.5739 -14.5563
    -3.7200  -3.5712  -3.2809  -2.9305  -2.5866  -2.2652  -1.8858  -1.5163
    -1.4381  -1.4011  -1.2294  -1.0060  -0.7604  -0.4240  -0.2048  -0.1812
    -0.0675   0.0569   0.1520   0.2583   0.5990   1.1803   1.6260   1.8473
     1.9811   2.1280   2.2484   2.5718   2.6453   2.6799   2.8321   2.8842
     3.1345   3.2164   3.3890   3.4871   3.6409   3.7251   3.8927   4.1208
     4.2602   4.3239   4.3983   4.4792   4.5326   4.5574   4.7612   4.7916
     4.9365   5.0437   5.0836   5.1600   5.2305   5.2712   5.3435   5.4070
     5.4509   5.5003   5.6207   5.7068   5.7380   5.8971   6.0809   6.2154
     6.3322   6.6630   6.8716   6.9430   7.0333   7.2685   7.4903   7.6127
     7.9183   8.0677   8.1303   8.3283   8.5160   8.5921   8.6726   8.8027
     8.9284   9.0842   9.1974   9.2433   9.3739   9.4863   9.5842   9.6602
     9.7186   9.8011   9.9537  10.0231  10.1655

          k =-0.1856 0.0833 0.4721 ( 48149 PWs)   bands (ev):

   -39.8157 -38.8518 -38.4197 -38.3383 -38.2332 -38.2171 -38.1856 -38.1486
   -38.1422 -38.1231 -38.1193 -38.0992 -38.0927 -38.0854 -16.7466 -16.6505
   -16.4964 -15.9552 -15.8453 -15.7656 -15.7234 -15.7136 -15.6292 -15.5926
   -15.5727 -15.5319 -15.4782 -15.4555 -15.4447 -15.4082 -15.3817 -15.3562
   -15.3081 -15.2794 -15.2397 -15.2126 -15.1773 -15.1599 -15.1474 -15.0807
   -15.0355 -15.0282 -15.0168 -14.9967 -14.9670 -14.9533 -14.9246 -14.8828
   -14.8824 -14.8672 -14.7624 -14.7586 -14.6697 -14.6207 -14.5691 -14.5517
    -3.3017  -3.1841  -2.9571  -2.7159  -2.5030  -2.2298  -1.8291  -1.3440
    -1.3263  -1.2657  -1.0881  -0.8976  -0.7102  -0.3868  -0.2784  -0.1708
    -0.0736   0.0262   0.1699   0.2649   0.6043   1.1675   1.4480   1.6234
     1.7403   1.8335   2.1283   2.2317   2.3135   2.5717   2.6295   2.7559
     2.8182   3.0420   3.2136   3.3516   3.5602   3.7080   3.9464   4.0388
     4.1825   4.2203   4.4214   4.4573   4.5327   4.5534   4.6331   4.8182
     4.8913   5.0302   5.0885   5.2439   5.3296   5.3626   5.4270   5.4778
     5.5284   5.5803   5.7274   5.7809   5.8996   6.0507   6.2018   6.3342
     6.4434   6.6138   6.6983   6.9114   7.1238   7.2999   7.4808   7.7435
     8.0209   8.1041   8.2296   8.4243   8.5163   8.5675   8.6154   8.7414
     8.8271   9.0365   9.0998   9.1561   9.2561   9.4111   9.5624   9.6008
     9.6698   9.7768   9.8470   9.8849  10.0075

          k = 0.2681 0.0833-0.6819 ( 48163 PWs)   bands (ev):

   -39.8157 -38.8517 -38.4196 -38.3381 -38.2323 -38.2161 -38.1847 -38.1482
   -38.1428 -38.1236 -38.1193 -38.1000 -38.0927 -38.0866 -16.7467 -16.6522
   -16.5000 -15.9600 -15.8462 -15.7730 -15.7369 -15.7199 -15.6321 -15.5907
   -15.5746 -15.5367 -15.5085 -15.4798 -15.4486 -15.4073 -15.4016 -15.3584
   -15.3201 -15.2818 -15.2420 -15.2102 -15.1811 -15.1568 -15.1470 -15.0684
   -15.0348 -15.0202 -15.0075 -14.9767 -14.9528 -14.9477 -14.9198 -14.8953
   -14.8810 -14.8715 -14.7587 -14.7573 -14.6671 -14.6181 -14.5663 -14.5491
    -2.9408  -2.8688  -2.7544  -2.6766  -2.5134  -2.2074  -1.7781  -1.3109
    -1.2520  -1.1992  -0.9900  -0.7483  -0.6971  -0.4564  -0.2534  -0.1687
     0.0189   0.0550   0.1523   0.2350   0.5970   1.1309   1.1579   1.4459
     1.7314   1.8153   1.9553   1.9932   2.1790   2.4011   2.4268   2.7240
     2.7775   2.8722   3.0182   3.3202   3.5065   3.7064   3.8176   3.9881
     4.0555   4.3361   4.3601   4.4989   4.5299   4.6143   4.7340   4.7885
     4.8918   4.9688   5.0897   5.1500   5.4001   5.4295   5.5044   5.5688
     5.6754   5.7159   5.7775   5.8946   5.9588   6.0218   6.1495   6.3470
     6.4399   6.5806   6.6081   6.9302   7.0185   7.3939   7.4986   7.8533
     7.9192   8.1474   8.4316   8.5206   8.6820   8.7061   8.7612   8.8719
     9.0152   9.0558   9.0912   9.2589   9.2796   9.3350   9.3781   9.4033
     9.5504   9.6023   9.6367   9.7519   9.8904

          k = 0.2268 0.0833-0.5770 ( 48163 PWs)   bands (ev):

   -39.8157 -38.8517 -38.4196 -38.3381 -38.2323 -38.2161 -38.1847 -38.1482
   -38.1428 -38.1236 -38.1193 -38.1000 -38.0927 -38.0866 -16.7467 -16.6522
   -16.5000 -15.9600 -15.8462 -15.7730 -15.7369 -15.7199 -15.6321 -15.5907
   -15.5746 -15.5367 -15.5085 -15.4798 -15.4486 -15.4073 -15.4016 -15.3584
   -15.3201 -15.2818 -15.2420 -15.2102 -15.1811 -15.1568 -15.1470 -15.0684
   -15.0348 -15.0202 -15.0075 -14.9767 -14.9528 -14.9477 -14.9198 -14.8953
   -14.8810 -14.8715 -14.7587 -14.7572 -14.6671 -14.6181 -14.5663 -14.5491
    -2.9408  -2.8688  -2.7544  -2.6766  -2.5134  -2.2074  -1.7781  -1.3109
    -1.2520  -1.1992  -0.9900  -0.7483  -0.6971  -0.4564  -0.2534  -0.1687
     0.0189   0.0550   0.1523   0.2350   0.5970   1.1309   1.1579   1.4459
     1.7314   1.8153   1.9553   1.9932   2.1790   2.4011   2.4268   2.7240
     2.7775   2.8722   3.0182   3.3202   3.5065   3.7064   3.8176   3.9881
     4.0555   4.3361   4.3601   4.4989   4.5299   4.6143   4.7340   4.7885
     4.8918   4.9688   5.0897   5.1500   5.4001   5.4295   5.5044   5.5688
     5.6754   5.7159   5.7775   5.8946   5.9588   6.0218   6.1495   6.3470
     6.4399   6.5806   6.6081   6.9302   7.0185   7.3939   7.4986   7.8533
     7.9192   8.1474   8.4316   8.5206   8.6820   8.7061   8.7612   8.8719
     9.0152   9.0558   9.0912   9.2589   9.2796   9.3350   9.3781   9.4033
     9.5504   9.6023   9.6366   9.7518   9.8904

          k = 0.1856 0.0833-0.4721 ( 48149 PWs)   bands (ev):

   -39.8157 -38.8518 -38.4197 -38.3383 -38.2332 -38.2171 -38.1856 -38.1486
   -38.1422 -38.1231 -38.1193 -38.0992 -38.0927 -38.0854 -16.7466 -16.6505
   -16.4964 -15.9552 -15.8453 -15.7656 -15.7234 -15.7136 -15.6292 -15.5926
   -15.5727 -15.5319 -15.4782 -15.4555 -15.4447 -15.4082 -15.3817 -15.3562
   -15.3081 -15.2794 -15.2397 -15.2126 -15.1773 -15.1599 -15.1474 -15.0807
   -15.0355 -15.0282 -15.0168 -14.9967 -14.9670 -14.9533 -14.9246 -14.8828
   -14.8824 -14.8672 -14.7624 -14.7586 -14.6697 -14.6207 -14.5691 -14.5517
    -3.3017  -3.1841  -2.9571  -2.7159  -2.5030  -2.2298  -1.8291  -1.3440
    -1.3263  -1.2657  -1.0881  -0.8976  -0.7102  -0.3868  -0.2784  -0.1708
    -0.0736   0.0262   0.1699   0.2649   0.6043   1.1675   1.4480   1.6234
     1.7403   1.8335   2.1283   2.2317   2.3135   2.5717   2.6295   2.7559
     2.8182   3.0420   3.2136   3.3516   3.5602   3.7080   3.9464   4.0388
     4.1825   4.2203   4.4214   4.4573   4.5327   4.5534   4.6331   4.8182
     4.8913   5.0302   5.0885   5.2439   5.3296   5.3626   5.4270   5.4778
     5.5284   5.5803   5.7274   5.7809   5.8996   6.0507   6.2018   6.3342
     6.4434   6.6138   6.6983   6.9114   7.1238   7.2999   7.4808   7.7435
     8.0209   8.1041   8.2296   8.4243   8.5163   8.5675   8.6154   8.7414
     8.8271   9.0365   9.0998   9.1561   9.2561   9.4111   9.5624   9.6008
     9.6698   9.7769   9.8470   9.8849  10.0074

          k = 0.1443 0.0833-0.3672 ( 48142 PWs)   bands (ev):

   -39.8158 -38.8520 -38.4200 -38.3386 -38.2346 -38.2186 -38.1869 -38.1493
   -38.1411 -38.1222 -38.1192 -38.0981 -38.0922 -38.0838 -16.7464 -16.6475
   -16.4903 -15.9469 -15.8439 -15.7527 -15.7045 -15.6994 -15.6245 -15.5914
   -15.5706 -15.5262 -15.4423 -15.4234 -15.4110 -15.4068 -15.3528 -15.3437
   -15.2870 -15.2756 -15.2317 -15.2155 -15.1710 -15.1621 -15.1498 -15.1017
   -15.0633 -15.0367 -15.0282 -15.0103 -14.9869 -14.9572 -14.9347 -14.8852
   -14.8848 -14.8599 -14.7679 -14.7621 -14.6740 -14.6254 -14.5739 -14.5563
    -3.7200  -3.5712  -3.2809  -2.9305  -2.5866  -2.2652  -1.8858  -1.5163
    -1.4381  -1.4011  -1.2294  -1.0060  -0.7604  -0.4240  -0.2048  -0.1812
    -0.0675   0.0569   0.1520   0.2583   0.5990   1.1803   1.6260   1.8473
     1.9811   2.1280   2.2484   2.5718   2.6453   2.6799   2.8321   2.8842
     3.1345   3.2164   3.3890   3.4871   3.6409   3.7251   3.8927   4.1208
     4.2602   4.3239   4.3983   4.4792   4.5326   4.5574   4.7612   4.7916
     4.9365   5.0437   5.0836   5.1600   5.2305   5.2712   5.3435   5.4070
     5.4509   5.5003   5.6207   5.7068   5.7380   5.8971   6.0809   6.2154
     6.3322   6.6630   6.8716   6.9430   7.0333   7.2685   7.4903   7.6127
     7.9183   8.0677   8.1303   8.3283   8.5160   8.5921   8.6726   8.8027
     8.9284   9.0842   9.1974   9.2433   9.3739   9.4863   9.5842   9.6602
     9.7186   9.8011   9.9537  10.0231  10.1655

          k = 0.1031 0.0833-0.2623 ( 48105 PWs)   bands (ev):

   -39.8159 -38.8522 -38.4203 -38.3391 -38.2363 -38.2204 -38.1885 -38.1501
   -38.1400 -38.1213 -38.1190 -38.0969 -38.0910 -38.0826 -16.7461 -16.6440
   -16.4837 -15.9372 -15.8420 -15.7373 -15.6910 -15.6765 -15.6191 -15.5850
   -15.5690 -15.5230 -15.4364 -15.4159 -15.3587 -15.3523 -15.3454 -15.2947
   -15.2712 -15.2591 -15.2209 -15.2120 -15.1654 -15.1595 -15.1487 -15.1228
   -15.1003 -15.0596 -15.0387 -15.0133 -15.0050 -14.9606 -14.9581 -14.9075
   -14.8880 -14.8515 -14.7737 -14.7669 -14.6791 -14.6310 -14.5795 -14.5618
    -4.1046  -3.9331  -3.6014  -3.1831  -2.7369  -2.3146  -1.9080  -1.7391
    -1.6290  -1.4611  -1.3918  -1.1090  -0.8548  -0.5352  -0.2742   0.0002
     0.0297   0.1140   0.1887   0.2877   0.5730   1.1795   1.7361   1.8551
     2.2007   2.5253   2.6027   2.7895   2.8498   2.9272   3.0100   3.1265
     3.2373   3.4105   3.4990   3.5482   3.7260   3.9108   4.0502   4.1191
     4.2708   4.3269   4.3724   4.5674   4.6037   4.7155   4.7802   4.7968
     4.8796   4.9921   5.0757   5.1330   5.2070   5.2641   5.3507   5.3917
     5.4583   5.4904   5.5117   5.5370   5.6013   5.7549   5.9776   6.0358
     6.3289   6.4612   6.6679   6.7402   7.0250   7.1365   7.3590   7.4624
     7.6224   7.9885   8.3116   8.5676   8.8149   8.8482   8.9735   9.1149
     9.1745   9.2081   9.3142   9.3900   9.5505   9.5999   9.7161   9.7625
     9.9114  10.0422  10.1408  10.2122  10.3343

          k = 0.0619 0.0833-0.1574 ( 48060 PWs)   bands (ev):

   -39.8159 -38.8524 -38.4205 -38.3394 -38.2377 -38.2219 -38.1898 -38.1507
   -38.1390 -38.1207 -38.1186 -38.0960 -38.0895 -38.0820 -16.7458 -16.6410
   -16.4783 -15.9288 -15.8401 -15.7236 -15.6796 -15.6583 -15.6138 -15.5757
   -15.5683 -15.5235 -15.4322 -15.4201 -15.3428 -15.3152 -15.3027 -15.2673
   -15.2394 -15.2265 -15.2126 -15.1816 -15.1628 -15.1526 -15.1447 -15.1302
   -15.1207 -15.0893 -15.0475 -15.0409 -15.0023 -14.9977 -14.9611 -14.9502
   -14.8909 -14.8444 -14.7785 -14.7714 -14.6835 -14.6360 -14.5842 -14.5667
    -4.3940  -4.2068  -3.8482  -3.3883  -2.8773  -2.3664  -1.9198  -1.8911
    -1.7941  -1.5379  -1.4439  -1.2058  -0.9519  -0.7013  -0.3135  -0.0057
     0.0384   0.1881   0.3562   0.5193   0.5455   1.1606   1.8306   1.9802
     2.3214   2.5409   2.8233   2.9019   2.9627   3.0907   3.1011   3.2996
     3.3819   3.4495   3.6033   3.6873   3.8852   4.0796   4.1756   4.2205
     4.3084   4.3837   4.4252   4.4837   4.5662   4.7279   4.8129   4.8806
     4.9151   5.0496   5.0968   5.1753   5.2679   5.2834   5.3341   5.3599
     5.4079   5.4543   5.4974   5.5382   5.7015   5.7328   5.9005   5.9335
     6.0240   6.2937   6.3248   6.6541   6.7489   6.9481   7.1143   7.2418
     7.4070   8.1463   8.4029   8.7089   8.8548   9.0693   9.2069   9.3503
     9.4847   9.5833   9.6476   9.7815   9.9243   9.9970  10.0998  10.1750
    10.2604  10.3986  10.4286  10.5576  10.6882

          k = 0.0412 0.1667-0.1049 ( 47997 PWs)   bands (ev):

   -39.8158 -38.8521 -38.4200 -38.3387 -38.2341 -38.2181 -38.1864 -38.1489
   -38.1419 -38.1228 -38.1193 -38.0989 -38.0922 -38.0854 -16.7518 -16.6323
   -16.4779 -15.9284 -15.8288 -15.6815 -15.6608 -15.6570 -15.6433 -15.6046
   -15.5868 -15.5670 -15.4778 -15.4093 -15.3138 -15.3015 -15.2902 -15.2567
   -15.2075 -15.1894 -15.1830 -15.1743 -15.1482 -15.1400 -15.1129 -15.1103
   -15.1011 -15.0977 -15.0679 -15.0541 -15.0234 -14.9799 -14.9752 -14.9478
   -14.8856 -14.8313 -14.8030 -14.7793 -14.7000 -14.6761 -14.6120 -14.5883
    -4.3889  -4.2014  -3.8419  -3.3788  -2.8591  -2.3319  -2.0720  -1.9716
    -1.8493  -1.7510  -1.5123  -1.4175  -1.1387  -0.9540  -0.0351   0.0356
     0.2873   0.3672   0.5309   0.7088   0.8757   0.9154   1.5375   2.2171
     2.3424   2.6275   2.8745   2.9005   3.0179   3.0959   3.2361   3.4294
     3.5560   3.5838   3.7547   3.8825   3.9520   4.0121   4.1575   4.2023
     4.2610   4.4052   4.4594   4.5296   4.6216   4.6709   4.7030   4.7837
     4.8824   4.9628   5.0171   5.0881   5.1396   5.2255   5.2896   5.3122
     5.4037   5.4663   5.4958   5.5566   5.6446   5.7321   5.8125   5.8389
     5.9169   6.1066   6.1323   6.3782   6.4727   6.7480   6.9731   6.9881
     7.3120   8.3794   8.6645   8.8064   8.9522   9.1804   9.2757   9.3946
     9.5536   9.6986   9.9160  10.0601  10.1434  10.2432  10.3209  10.3937
    10.4567  10.5142  10.5805  10.7309  10.8442

          k = 0.0000 0.1667-0.0000 ( 48011 PWs)   bands (ev):

   -39.8159 -38.8521 -38.4201 -38.3388 -38.2345 -38.2185 -38.1867 -38.1491
   -38.1417 -38.1225 -38.1193 -38.0986 -38.0916 -38.0854 -16.7517 -16.6315
   -16.4766 -15.9265 -15.8278 -15.6782 -15.6573 -15.6529 -15.6410 -15.6042
   -15.5787 -15.5723 -15.4793 -15.4085 -15.3118 -15.2978 -15.2853 -15.2568
   -15.1904 -15.1851 -15.1700 -15.1596 -15.1372 -15.1265 -15.1115 -15.1066
   -15.0984 -15.0845 -15.0715 -15.0556 -15.0455 -15.0393 -14.9755 -14.9468
   -14.8868 -14.8301 -14.8034 -14.7809 -14.7013 -14.6778 -14.6135 -14.5898
    -4.4652  -4.2736  -3.9072  -3.4337  -2.8976  -2.3437  -2.1059  -2.0024
    -1.8209  -1.7784  -1.4879  -1.3924  -1.1739  -1.0828   0.0028   0.0175
     0.2533   0.3530   0.5427   0.7842   0.8845   0.9824   1.5097   2.2122
     2.6034   2.6216   2.7951   2.8368   2.9529   3.1501   3.1959   3.4228
     3.5622   3.6327   3.8227   3.8604   3.9436   4.1474   4.1513   4.1948
     4.3842   4.5082   4.5404   4.6049   4.6323   4.7443   4.7576   4.8237
     4.9638   4.9775   5.1098   5.1548   5.1954   5.2434   5.2640   5.2722
     5.3179   5.3833   5.4238   5.6003   5.6065   5.6242   5.7848   5.8036
     5.8577   5.9918   6.0543   6.2901   6.3379   6.6676   6.9042   6.9498
     7.2944   8.3982   8.7847   8.8526   8.9616   9.2019   9.2940   9.4926
     9.5565   9.8359  10.0473  10.2427  10.3704  10.5691  10.6887  10.7255
    10.7983  10.8388  10.9026  11.0443  11.0972

          k =-0.0412 0.1667 0.1049 ( 47997 PWs)   bands (ev):

   -39.8158 -38.8521 -38.4200 -38.3387 -38.2341 -38.2181 -38.1864 -38.1489
   -38.1419 -38.1228 -38.1193 -38.0989 -38.0922 -38.0854 -16.7518 -16.6323
   -16.4779 -15.9284 -15.8288 -15.6815 -15.6608 -15.6570 -15.6433 -15.6046
   -15.5868 -15.5670 -15.4778 -15.4093 -15.3138 -15.3015 -15.2902 -15.2567
   -15.2075 -15.1894 -15.1830 -15.1743 -15.1482 -15.1400 -15.1129 -15.1103
   -15.1011 -15.0977 -15.0679 -15.0541 -15.0234 -14.9799 -14.9752 -14.9478
   -14.8856 -14.8313 -14.8030 -14.7793 -14.7000 -14.6761 -14.6120 -14.5883
    -4.3889  -4.2014  -3.8419  -3.3788  -2.8591  -2.3319  -2.0720  -1.9716
    -1.8493  -1.7510  -1.5123  -1.4175  -1.1387  -0.9540  -0.0351   0.0356
     0.2873   0.3672   0.5309   0.7088   0.8757   0.9154   1.5375   2.2171
     2.3424   2.6275   2.8745   2.9005   3.0180   3.0959   3.2361   3.4294
     3.5560   3.5838   3.7547   3.8825   3.9520   4.0121   4.1575   4.2023
     4.2610   4.4052   4.4594   4.5296   4.6216   4.6709   4.7030   4.7837
     4.8824   4.9628   5.0171   5.0881   5.1396   5.2255   5.2896   5.3122
     5.4037   5.4663   5.4958   5.5566   5.6446   5.7321   5.8125   5.8389
     5.9169   6.1066   6.1323   6.3782   6.4727   6.7480   6.9731   6.9881
     7.3120   8.3794   8.6645   8.8064   8.9522   9.1804   9.2757   9.3946
     9.5536   9.6986   9.9160  10.0601  10.1434  10.2432  10.3209  10.3937
    10.4567  10.5142  10.5806  10.7311  10.8447

          k =-0.0825 0.1667 0.2098 ( 48085 PWs)   bands (ev):

   -39.8158 -38.8520 -38.4199 -38.3384 -38.2330 -38.2169 -38.1853 -38.1486
   -38.1426 -38.1237 -38.1193 -38.0998 -38.0935 -38.0856 -16.7520 -16.6345
   -16.4817 -15.9335 -15.8314 -15.6905 -15.6717 -15.6664 -15.6493 -15.6096
   -15.5942 -15.5648 -15.4743 -15.4115 -15.3301 -15.3198 -15.3064 -15.2621
   -15.2516 -15.2342 -15.1977 -15.1891 -15.1610 -15.1355 -15.1257 -15.1153
   -15.0992 -15.0795 -15.0510 -15.0323 -14.9793 -14.9777 -14.9497 -14.9286
   -14.8824 -14.8354 -14.8011 -14.7754 -14.6962 -14.6717 -14.6080 -14.5841
    -4.1698  -3.9943  -3.6552  -3.2236  -2.7536  -2.3009  -1.9811  -1.9010
    -1.8803  -1.6849  -1.5562  -1.3859  -1.0596  -0.7459  -0.0525   0.0347
     0.3307   0.4214   0.4775   0.5551   0.6647   0.9754   1.6001   2.1055
     2.2713   2.4989   2.7978   3.0005   3.0307   3.0729   3.1313   3.2529
     3.3808   3.5054   3.5629   3.7367   3.8659   3.9668   4.0730   4.1615
     4.2548   4.3055   4.3617   4.4018   4.4990   4.6008   4.6868   4.7629
     4.7973   4.8270   4.9840   5.0371   5.1434   5.1940   5.3072   5.3440
     5.3973   5.5161   5.5503   5.6037   5.6626   5.7687   5.9117   5.9649
     6.2083   6.2727   6.4016   6.5781   6.6936   6.9696   7.1496   7.2015
     7.3772   8.1415   8.3780   8.5764   8.9196   8.9809   9.2123   9.3061
     9.4358   9.4950   9.5461   9.5709   9.7179   9.8028   9.8635   9.9954
    10.1464  10.2018  10.3076  10.3889  10.5063

          k =-0.1237 0.1667 0.3147 ( 48129 PWs)   bands (ev):

   -39.8157 -38.8518 -38.4196 -38.3380 -38.2315 -38.2152 -38.1838 -38.1481
   -38.1435 -38.1248 -38.1193 -38.1011 -38.0947 -38.0863 -16.7524 -16.6374
   -16.4872 -15.9403 -15.8348 -15.7030 -15.6886 -15.6783 -15.6558 -15.6181
   -15.5978 -15.5685 -15.4708 -15.4147 -15.3781 -15.3711 -15.3158 -15.3074
   -15.2698 -15.2504 -15.2212 -15.1937 -15.1632 -15.1237 -15.1197 -15.0998
   -15.0925 -15.0531 -15.0443 -15.0046 -14.9823 -14.9510 -14.9489 -14.8979
   -14.8785 -14.8422 -14.7970 -14.7705 -14.6910 -14.6661 -14.6024 -14.5787
    -3.8377  -3.6813  -3.3763  -2.9995  -2.6141  -2.2620  -1.9071  -1.8608
    -1.7818  -1.6015  -1.5270  -1.3366  -0.9904  -0.5914  -0.0396   0.0588
     0.3110   0.3382   0.4401   0.5037   0.5750   1.0135   1.6420   2.0056
     2.3095   2.3579   2.4547   2.6088   2.8570   2.9359   2.9966   3.0710
     3.2145   3.2906   3.4900   3.6183   3.7414   3.8411   4.0003   4.0679
     4.1255   4.2304   4.3730   4.4270   4.5322   4.5530   4.6215   4.6748
     4.8015   4.8698   4.9505   5.1140   5.1619   5.2079   5.2806   5.3710
     5.4259   5.4478   5.6101   5.6838   5.8136   5.8926   6.0350   6.1230
     6.3633   6.4714   6.6221   6.6976   6.9797   7.0457   7.3734   7.4602
     7.6118   7.8336   8.1306   8.3798   8.6355   8.8219   8.9379   8.9947
     9.0964   9.1308   9.3038   9.3802   9.4763   9.5495   9.7383   9.8332
     9.8905   9.9753  10.0942  10.2508  10.3709

          k =-0.1650 0.1667 0.4196 ( 48127 PWs)   bands (ev):

   -39.8156 -38.8516 -38.4193 -38.3376 -38.2299 -38.2135 -38.1823 -38.1479
   -38.1442 -38.1259 -38.1192 -38.1026 -38.0952 -38.0877 -16.7527 -16.6403
   -16.4930 -15.9469 -15.8378 -15.7159 -15.7090 -15.6883 -15.6605 -15.6231
   -15.6016 -15.5770 -15.4688 -15.4399 -15.4239 -15.4126 -15.3555 -15.3131
   -15.2929 -15.2491 -15.2309 -15.1972 -15.1597 -15.1303 -15.1017 -15.0934
   -15.0538 -15.0420 -15.0214 -14.9881 -14.9844 -14.9493 -14.9354 -14.8881
   -14.8752 -14.8496 -14.7920 -14.7663 -14.6856 -14.6609 -14.5968 -14.5734
    -3.4427  -3.3128  -3.0590  -2.7685  -2.5009  -2.2232  -1.8538  -1.7915
    -1.7033  -1.5201  -1.4181  -1.2777  -0.9507  -0.5485  -0.0185   0.1242
     0.2336   0.3321   0.3806   0.5320   0.5976   1.0049   1.6281   1.8194
     1.9867   2.0749   2.3413   2.4446   2.5116   2.5852   2.8383   2.9120
     3.0460   3.1927   3.2685   3.5836   3.6558   3.7800   3.9737   4.1238
     4.1883   4.2089   4.2544   4.3235   4.3745   4.5051   4.5878   4.7106
     4.8491   4.9325   4.9552   5.1284   5.2286   5.3112   5.3619   5.4564
     5.4753   5.5040   5.5926   5.7694   5.8918   6.0968   6.2111   6.2542
     6.4086   6.4515   6.5416   6.7259   6.9156   7.2083   7.4909   7.6248
     7.9195   8.0488   8.2356   8.2911   8.4566   8.5502   8.6712   8.7204
     8.8238   8.9889   9.1234   9.2584   9.3393   9.5218   9.6271   9.7028
     9.8299   9.9319  10.1491  10.1847  10.2321

          k = 0.2887 0.1667-0.7343 ( 48162 PWs)   bands (ev):

   -39.8156 -38.8515 -38.4192 -38.3374 -38.2288 -38.2123 -38.1812 -38.1479
   -38.1444 -38.1268 -38.1191 -38.1037 -38.0951 -38.0893 -16.7529 -16.6425
   -16.4976 -15.9517 -15.8398 -15.7274 -15.7238 -15.6952 -15.6627 -15.6224
   -15.6055 -15.5869 -15.4821 -15.4684 -15.4572 -15.4168 -15.3834 -15.3165
   -15.3072 -15.2480 -15.2326 -15.1991 -15.1545 -15.1365 -15.1000 -15.0753
   -15.0409 -15.0219 -14.9948 -14.9914 -14.9671 -14.9475 -14.9324 -14.8971
   -14.8730 -14.8553 -14.7879 -14.7637 -14.6815 -14.6573 -14.5927 -14.5696
    -3.0588  -2.9662  -2.7950  -2.6385  -2.4715  -2.1856  -1.7917  -1.7751
    -1.6773  -1.4530  -1.2924  -1.1819  -0.9199  -0.6360   0.0073   0.1812
     0.2614   0.3582   0.3993   0.5351   0.6030   0.9701   1.4050   1.5804
     1.6974   2.0041   2.1576   2.2514   2.2943   2.4560   2.6632   2.7896
     2.9875   3.1001   3.1632   3.4660   3.6017   3.7932   3.9250   4.0064
     4.1120   4.2398   4.2746   4.3847   4.4994   4.5280   4.5623   4.7064
     4.8501   4.9394   4.9484   5.1210   5.2713   5.3468   5.3929   5.5201
     5.5549   5.6263   5.7533   5.8426   5.9210   6.0077   6.0581   6.2153
     6.3419   6.4145   6.6905   6.7772   6.9212   7.2610   7.4063   7.7628
     8.0009   8.0820   8.3893   8.4636   8.6268   8.6656   8.7229   8.8291
     8.9016   8.9459   9.0750   9.1628   9.3553   9.4689   9.6032   9.6353
     9.7433   9.7847   9.8422   9.9633  10.0088

          k = 0.2474 0.1667-0.6294 ( 48162 PWs)   bands (ev):

   -39.8156 -38.8515 -38.4191 -38.3373 -38.2283 -38.2118 -38.1808 -38.1480
   -38.1444 -38.1271 -38.1191 -38.1042 -38.0948 -38.0901 -16.7529 -16.6433
   -16.4993 -15.9535 -15.8406 -15.7335 -15.7277 -15.6977 -15.6634 -15.6198
   -15.6083 -15.5916 -15.4971 -15.4713 -15.4668 -15.4175 -15.3933 -15.3195
   -15.3104 -15.2475 -15.2322 -15.1997 -15.1525 -15.1391 -15.0998 -15.0679
   -15.0404 -15.0107 -14.9949 -14.9812 -14.9562 -14.9465 -14.9273 -14.9122
   -14.8723 -14.8574 -14.7862 -14.7628 -14.6800 -14.6560 -14.5912 -14.5683
    -2.8274  -2.7691  -2.7223  -2.6775  -2.4825  -2.1672  -1.8018  -1.7375
    -1.6761  -1.4317  -1.2265  -1.1347  -0.8347  -0.7751   0.0216   0.1971
     0.3046   0.3736   0.4250   0.5479   0.5779   0.9504   1.2469   1.5488
     1.5571   2.0367   2.0660   2.1002   2.2072   2.4410   2.5926   2.7818
     2.9400   3.0622   3.1488   3.4337   3.5730   3.7796   3.8221   4.0011
     4.1258   4.2235   4.3446   4.4030   4.4603   4.6094   4.6307   4.7852
     4.8174   4.9105   4.9354   5.0567   5.2679   5.4204   5.4688   5.5388
     5.5909   5.6389   5.6601   5.7671   5.9375   6.0261   6.0928   6.2296
     6.3833   6.4613   6.5464   6.7669   6.8304   7.2602   7.5617   7.8043
     7.9770   8.0948   8.3605   8.4597   8.6025   8.7720   8.9055   9.1512
     9.1976   9.2140   9.2438   9.3067   9.3661   9.4657   9.4802   9.5168
     9.5362   9.5955   9.6298   9.7151   9.7901

          k = 0.2062 0.1667-0.5245 ( 48162 PWs)   bands (ev):

   -39.8156 -38.8515 -38.4192 -38.3374 -38.2288 -38.2123 -38.1812 -38.1479
   -38.1444 -38.1268 -38.1191 -38.1037 -38.0951 -38.0893 -16.7529 -16.6425
   -16.4976 -15.9517 -15.8398 -15.7274 -15.7238 -15.6952 -15.6627 -15.6224
   -15.6055 -15.5869 -15.4821 -15.4684 -15.4572 -15.4168 -15.3834 -15.3165
[...]
     5.2751   5.3659   5.4476   5.5979   5.6943   5.8311   5.9895   6.1246
     6.1835   6.3919   6.4938   6.6271   6.7392   6.9007   7.1407   7.5040
     7.7449   8.0204   8.1751   8.3252   8.3984   8.6958   8.7543   8.9308
     9.1086   9.1692   9.2353   9.3066   9.4145   9.5043   9.5950   9.6799
     9.8392   9.9299  10.0089  10.2673  10.3293

          k = 0.1856 0.4167-0.4721 ( 48055 PWs)   bands (ev):

   -39.8153 -38.8506 -38.4175 -38.3348 -38.2101 -38.1919 -38.1680 -38.1548
   -38.1462 -38.1347 -38.1278 -38.1178 -38.1060 -38.0994 -16.7691 -16.6158
   -16.4913 -15.9559 -15.8460 -15.7632 -15.7191 -15.6929 -15.6762 -15.6123
   -15.5530 -15.4629 -15.4382 -15.3820 -15.3793 -15.3730 -15.3562 -15.3117
   -15.2717 -15.2588 -15.2146 -15.1988 -15.1517 -15.1083 -15.0842 -15.0730
   -15.0594 -15.0230 -15.0032 -14.9765 -14.9749 -14.9285 -14.9028 -14.8863
   -14.8664 -14.8521 -14.8238 -14.7888 -14.7560 -14.7509 -14.7167 -14.6538
    -3.0046  -2.8788  -2.8663  -2.7912  -2.6264  -2.5935  -2.4465  -2.2739
    -2.2380  -2.0232  -1.8967  -1.7642  -1.4380  -1.0036  -0.3391   0.2599
     0.4227   0.8272   0.9437   1.3967   1.6291   1.8852   1.9724   2.0326
     2.2492   2.3934   2.6149   2.8012   2.9896   3.0477   3.2664   3.3314
     3.3894   3.4923   3.5364   3.5723   3.6936   3.7448   3.8097   3.9227
     3.9912   4.0217   4.0464   4.0958   4.1616   4.2068   4.2971   4.3662
     4.4719   4.5453   4.5835   4.6339   4.7498   4.8505   5.2077   5.3077
     5.4001   5.5378   5.5804   5.7049   5.7811   5.9034   6.0128   6.1003
     6.2511   6.3714   6.4536   6.6612   6.8257   6.8812   7.1228   7.5829
     7.8027   8.0187   8.0996   8.2547   8.4093   8.5060   8.7096   8.7655
     8.8347   9.0144   9.1285   9.2193   9.4383   9.5896   9.6733   9.7914
     9.9730  10.1076  10.2770  10.3721  10.4914

          k = 0.1443 0.4167-0.3672 ( 48028 PWs)   bands (ev):

   -39.8154 -38.8506 -38.4176 -38.3349 -38.2108 -38.1926 -38.1677 -38.1556
   -38.1457 -38.1344 -38.1275 -38.1175 -38.1064 -38.0984 -16.7691 -16.6151
   -16.4893 -15.9563 -15.8442 -15.7675 -15.7160 -15.6861 -15.6707 -15.6128
   -15.5462 -15.4626 -15.4320 -15.3701 -15.3657 -15.3431 -15.3395 -15.2838
   -15.2655 -15.2555 -15.2158 -15.2033 -15.1721 -15.1494 -15.1267 -15.0805
   -15.0726 -15.0236 -15.0042 -14.9754 -14.9660 -14.9129 -14.9021 -14.8835
   -14.8670 -14.8464 -14.8249 -14.7905 -14.7582 -14.7465 -14.7213 -14.6595
    -3.1569  -3.0405  -2.8526  -2.8103  -2.7326  -2.5472  -2.4930  -2.3013
    -2.2137  -2.0950  -1.9790  -1.8469  -1.4562  -0.8784  -0.3804   0.2722
     0.6712   0.9471   0.9855   1.4425   1.6236   1.8674   1.9159   1.9898
     2.2167   2.6374   2.7643   2.8793   3.0613   3.1457   3.2574   3.3058
     3.3632   3.4412   3.5070   3.5850   3.6465   3.6832   3.7547   3.8013
     3.8953   3.9405   3.9754   3.9982   4.1384   4.1947   4.3522   4.3991
     4.4582   4.4930   4.5309   4.6804   4.8044   4.8673   5.1154   5.3039
     5.4909   5.6459   5.7167   5.8214   5.8789   5.9304   6.0235   6.0969
     6.1946   6.3403   6.4433   6.7155   6.8422   6.9486   7.1315   7.3642
     7.6645   7.9608   8.0989   8.2332   8.3150   8.4156   8.6692   8.7406
     8.8950   9.0185   9.0421   9.2331   9.6191   9.7719   9.8436  10.1603
    10.2239  10.2940  10.4533  10.5340  10.5578

          k =-0.1237-0.5000 0.3147 ( 48060 PWs)   bands (ev):

   -39.8153 -38.8505 -38.4175 -38.3347 -38.2082 -38.1898 -38.1693 -38.1520
   -38.1469 -38.1379 -38.1282 -38.1178 -38.1081 -38.0991 -16.7704 -16.6130
   -16.4886 -15.9582 -15.8486 -15.7747 -15.7229 -15.6839 -15.6599 -15.6313
   -15.5098 -15.4892 -15.3780 -15.3474 -15.3289 -15.3195 -15.3065 -15.2612
   -15.2494 -15.2385 -15.2340 -15.2168 -15.2019 -15.1864 -15.1724 -15.1401
   -15.0822 -15.0292 -15.0169 -14.9691 -14.9661 -14.9147 -14.8713 -14.8653
   -14.8342 -14.8214 -14.8184 -14.7930 -14.7824 -14.7754 -14.7051 -14.7009
    -3.0498  -3.0430  -2.9354  -2.9215  -2.6997  -2.6872  -2.4221  -2.4140
    -2.1808  -2.1612  -2.0506  -1.8943  -1.4968  -0.8930  -0.4149   0.2525
     0.8209   0.8818   1.1028   1.3721   1.7360   1.8992   2.3444   2.3753
     2.4446   2.4537   2.5478   2.5828   3.1183   3.1644   3.3891   3.4121
     3.4421   3.4641   3.4995   3.5553   3.6784   3.6987   3.7505   3.7797
     3.8083   3.8378   3.9048   4.0395   4.1628   4.1990   4.2791   4.3576
     4.3969   4.4603   4.5624   4.6033   4.7624   4.8649   5.0798   5.2628
     5.4336   5.6330   5.7387   5.8342   5.9029   5.9092   6.0211   6.0571
     6.2931   6.3491   6.4975   6.5663   6.7455   6.8277   7.0371   7.3100
     7.6008   7.9637   8.1620   8.3178   8.3904   8.5839   8.6775   8.7912
     8.8716   8.9501   9.0242   9.1762   9.6129   9.8400  10.0754  10.3057
    10.3350  10.3754  10.5109  10.5587  10.6319

          k =-0.1650-0.5000 0.4196 ( 48027 PWs)   bands (ev):

   -39.8153 -38.8505 -38.4175 -38.3347 -38.2082 -38.1898 -38.1692 -38.1521
   -38.1470 -38.1377 -38.1282 -38.1179 -38.1077 -38.0995 -16.7703 -16.6129
   -16.4889 -15.9573 -15.8492 -15.7717 -15.7247 -15.6852 -15.6601 -15.6326
   -15.5111 -15.4884 -15.3781 -15.3499 -15.3366 -15.3327 -15.3058 -15.2751
   -15.2545 -15.2431 -15.2355 -15.2115 -15.1979 -15.1660 -15.1431 -15.1267
   -15.0803 -15.0328 -15.0174 -14.9773 -14.9661 -14.9259 -14.8705 -14.8646
   -14.8353 -14.8213 -14.8171 -14.7944 -14.7856 -14.7725 -14.7100 -14.6960
    -3.2633  -3.1240  -2.8494  -2.8130  -2.7227  -2.5493  -2.5007  -2.3455
    -2.1698  -2.1490  -1.9923  -1.8599  -1.4850  -0.9729  -0.3939   0.2432
     0.6540   0.8341   1.0602   1.3400   1.7393   1.8903   2.3433   2.3726
     2.4370   2.5213   2.5673   2.6045   3.1017   3.2000   3.2266   3.4121
     3.4560   3.4998   3.5329   3.5870   3.7396   3.7726   3.8111   3.8485
     3.9140   3.9275   3.9963   4.0522   4.1568   4.2094   4.3105   4.3663
     4.3960   4.4673   4.5167   4.6213   4.7604   4.8572   5.0956   5.2673
     5.4204   5.5735   5.6573   5.7673   5.8298   5.8691   5.9541   6.0732
     6.2099   6.3102   6.4619   6.5652   6.6358   6.8068   7.0213   7.3389
     7.6858   8.0503   8.1890   8.4051   8.4768   8.6282   8.7560   8.7741
     8.8363   9.0213   9.1168   9.2661   9.5927   9.6919   9.8580   9.9311
    10.2046  10.2894  10.4086  10.5509  10.7015

          k =-0.2062-0.5000 0.5245 ( 48037 PWs)   bands (ev):

   -39.8153 -38.8505 -38.4175 -38.3347 -38.2083 -38.1899 -38.1691 -38.1522
   -38.1471 -38.1373 -38.1280 -38.1183 -38.1066 -38.1005 -16.7702 -16.6128
   -16.4894 -15.9556 -15.8503 -15.7644 -15.7301 -15.6879 -15.6597 -15.6358
   -15.5130 -15.4875 -15.3784 -15.3592 -15.3547 -15.3446 -15.3057 -15.2911
   -15.2544 -15.2472 -15.2403 -15.2028 -15.1959 -15.1399 -15.1030 -15.0803
   -15.0683 -15.0417 -15.0181 -15.0002 -14.9663 -14.9582 -14.8686 -14.8633
   -14.8376 -14.8221 -14.8125 -14.7988 -14.7891 -14.7691 -14.7148 -14.6912
    -3.4152  -3.2619  -2.9605  -2.6272  -2.5811  -2.5595  -2.4477  -2.3068
    -2.1554  -2.1064  -1.8559  -1.7754  -1.4736  -1.1760  -0.2884   0.2136
     0.3799   0.6556   1.0382   1.2308   1.7513   1.8521   2.3394   2.3785
     2.5082   2.5906   2.6287   2.6636   2.9524   3.1188   3.1575   3.3921
     3.4342   3.5635   3.6504   3.6928   3.7930   3.8794   3.8941   4.0030
     4.0749   4.1112   4.1473   4.1822   4.2225   4.2475   4.3006   4.3526
     4.4650   4.4974   4.5606   4.6595   4.7500   4.8559   5.1190   5.2239
     5.2789   5.4193   5.4830   5.6083   5.6954   5.7794   5.9131   6.0048
     6.1599   6.2285   6.3541   6.4442   6.6030   6.8264   7.0674   7.3942
     7.5954   8.0240   8.1723   8.5795   8.6323   8.7242   8.7970   9.0061
     9.0907   9.1430   9.2173   9.3253   9.4238   9.5195   9.6669   9.8035
    10.0047  10.1249  10.2741  10.4093  10.5864

          k =-0.2474-0.5000 0.6294 ( 48000 PWs)   bands (ev):

   -39.8153 -38.8505 -38.4175 -38.3347 -38.2083 -38.1900 -38.1691 -38.1523
   -38.1471 -38.1371 -38.1280 -38.1184 -38.1058 -38.1012 -16.7702 -16.6128
   -16.4897 -15.9548 -15.8508 -15.7594 -15.7343 -15.6894 -15.6589 -15.6378
   -15.5138 -15.4873 -15.3788 -15.3676 -15.3611 -15.3468 -15.3081 -15.2928
   -15.2527 -15.2508 -15.2428 -15.1984 -15.1960 -15.1289 -15.0854 -15.0631
   -15.0495 -15.0248 -15.0182 -15.0109 -15.0041 -14.9663 -14.8675 -14.8626
   -14.8389 -14.8227 -14.8071 -14.8041 -14.7903 -14.7679 -14.7166 -14.6894
    -3.4695  -3.3115  -3.0011  -2.6039  -2.5516  -2.4949  -2.4268  -2.2966
    -2.1512  -2.0769  -1.7767  -1.7048  -1.4383  -1.3564  -0.0929  -0.0101
     0.3864   0.5043   1.0788   1.1305   1.7733   1.8111   2.3371   2.3811
     2.6041   2.6189   2.6560   2.7641   2.8148   2.9486   3.1318   3.3842
     3.5460   3.6340   3.6872   3.7075   3.8281   3.9003   3.9238   4.0215
     4.0598   4.1366   4.1928   4.2473   4.2780   4.3152   4.4413   4.4479
     4.4910   4.5488   4.5922   4.7292   4.8101   4.8817   5.0176   5.1257
     5.1640   5.2990   5.3811   5.5371   5.6448   5.7505   5.8641   6.0140
     6.1015   6.1880   6.3060   6.4781   6.5482   6.8179   7.1080   7.3575
     7.5862   8.0780   8.3240   8.3258   8.5438   8.7904   8.8149   8.8606
     9.1148   9.1811   9.3391   9.5732   9.6562   9.7770   9.8051   9.8846
     9.9240  10.1489  10.1572  10.2462  10.3300

          k =-0.2887-0.5000 0.7343 ( 48037 PWs)   bands (ev):

   -39.8153 -38.8505 -38.4175 -38.3347 -38.2083 -38.1899 -38.1691 -38.1522
   -38.1471 -38.1373 -38.1280 -38.1183 -38.1066 -38.1005 -16.7702 -16.6128
   -16.4894 -15.9556 -15.8503 -15.7644 -15.7301 -15.6879 -15.6597 -15.6358
   -15.5130 -15.4875 -15.3784 -15.3592 -15.3547 -15.3446 -15.3057 -15.2911
   -15.2544 -15.2472 -15.2403 -15.2028 -15.1959 -15.1399 -15.1030 -15.0803
   -15.0683 -15.0417 -15.0181 -15.0002 -14.9663 -14.9582 -14.8686 -14.8633
   -14.8376 -14.8221 -14.8125 -14.7988 -14.7891 -14.7691 -14.7148 -14.6912
    -3.4152  -3.2619  -2.9605  -2.6272  -2.5811  -2.5595  -2.4477  -2.3068
    -2.1554  -2.1064  -1.8559  -1.7753  -1.4736  -1.1760  -0.2884   0.2136
     0.3799   0.6556   1.0382   1.2308   1.7513   1.8521   2.3394   2.3785
     2.5082   2.5906   2.6287   2.6636   2.9524   3.1188   3.1575   3.3921
     3.4342   3.5635   3.6504   3.6928   3.7930   3.8794   3.8941   4.0030
     4.0749   4.1112   4.1473   4.1822   4.2225   4.2475   4.3006   4.3526
     4.4650   4.4974   4.5606   4.6595   4.7500   4.8559   5.1190   5.2239
     5.2789   5.4193   5.4830   5.6083   5.6954   5.7794   5.9131   6.0048
     6.1599   6.2284   6.3541   6.4442   6.6030   6.8264   7.0674   7.3942
     7.5954   8.0240   8.1723   8.5795   8.6323   8.7242   8.7970   9.0061
     9.0907   9.1430   9.2173   9.3253   9.4238   9.5195   9.6669   9.8035
    10.0047  10.1249  10.2741  10.4093  10.5865

          k =-0.3299-0.5000 0.8392 ( 48027 PWs)   bands (ev):

   -39.8153 -38.8505 -38.4175 -38.3347 -38.2082 -38.1898 -38.1692 -38.1521
   -38.1470 -38.1377 -38.1282 -38.1179 -38.1077 -38.0995 -16.7703 -16.6129
   -16.4889 -15.9573 -15.8492 -15.7717 -15.7247 -15.6852 -15.6601 -15.6326
   -15.5111 -15.4884 -15.3781 -15.3499 -15.3366 -15.3327 -15.3058 -15.2751
   -15.2545 -15.2431 -15.2355 -15.2115 -15.1979 -15.1660 -15.1431 -15.1267
   -15.0803 -15.0328 -15.0174 -14.9773 -14.9661 -14.9259 -14.8705 -14.8646
   -14.8353 -14.8213 -14.8171 -14.7944 -14.7856 -14.7725 -14.7100 -14.6960
    -3.2633  -3.1240  -2.8494  -2.8130  -2.7227  -2.5493  -2.5007  -2.3455
    -2.1698  -2.1490  -1.9923  -1.8599  -1.4850  -0.9729  -0.3939   0.2432
     0.6540   0.8341   1.0602   1.3400   1.7393   1.8903   2.3433   2.3726
     2.4370   2.5213   2.5673   2.6045   3.1017   3.2000   3.2266   3.4121
     3.4560   3.4998   3.5329   3.5870   3.7396   3.7726   3.8111   3.8485
     3.9140   3.9275   3.9963   4.0522   4.1568   4.2094   4.3105   4.3663
     4.3960   4.4673   4.5167   4.6213   4.7604   4.8572   5.0956   5.2674
     5.4204   5.5735   5.6573   5.7673   5.8298   5.8691   5.9541   6.0732
     6.2099   6.3102   6.4619   6.5652   6.6358   6.8068   7.0213   7.3389
     7.6858   8.0503   8.1890   8.4051   8.4768   8.6282   8.7560   8.7741
     8.8363   9.0213   9.1168   9.2661   9.5927   9.6919   9.8580   9.9311
    10.2045  10.2894  10.4086  10.5509  10.7014

          k = 0.1237-0.5000-0.3147 ( 48060 PWs)   bands (ev):

   -39.8153 -38.8505 -38.4175 -38.3347 -38.2082 -38.1898 -38.1693 -38.1520
   -38.1469 -38.1379 -38.1282 -38.1178 -38.1081 -38.0991 -16.7704 -16.6130
   -16.4886 -15.9582 -15.8486 -15.7747 -15.7229 -15.6839 -15.6599 -15.6313
   -15.5098 -15.4892 -15.3780 -15.3474 -15.3289 -15.3195 -15.3065 -15.2612
   -15.2494 -15.2385 -15.2340 -15.2168 -15.2019 -15.1864 -15.1724 -15.1401
   -15.0822 -15.0292 -15.0169 -14.9691 -14.9661 -14.9147 -14.8713 -14.8653
   -14.8342 -14.8214 -14.8184 -14.7930 -14.7824 -14.7754 -14.7051 -14.7009
    -3.0498  -3.0430  -2.9354  -2.9215  -2.6997  -2.6872  -2.4221  -2.4140
    -2.1808  -2.1612  -2.0506  -1.8943  -1.4968  -0.8930  -0.4149   0.2525
     0.8209   0.8818   1.1028   1.3721   1.7360   1.8992   2.3444   2.3753
     2.4446   2.4537   2.5478   2.5828   3.1183   3.1644   3.3891   3.4121
     3.4421   3.4641   3.4995   3.5553   3.6784   3.6987   3.7505   3.7797
     3.8083   3.8378   3.9048   4.0395   4.1628   4.1990   4.2791   4.3576
     4.3969   4.4603   4.5624   4.6033   4.7624   4.8649   5.0798   5.2628
     5.4336   5.6330   5.7387   5.8342   5.9029   5.9092   6.0211   6.0571
     6.2931   6.3491   6.4975   6.5663   6.7455   6.8277   7.0371   7.3100
     7.6008   7.9637   8.1620   8.3179   8.3904   8.5839   8.6775   8.7912
     8.8716   8.9501   9.0242   9.1761   9.6129   9.8400  10.0754  10.3057
    10.3350  10.3754  10.5110  10.5588  10.6319

     the Fermi energy is     6.0032 ev

!    total energy              =   -8188.67781941 Ry
     estimated scf accuracy    <       0.00000030 Ry
     smearing contrib. (-TS)   =      -0.02784862 Ry
     internal energy E=F+TS    =   -8188.64997079 Ry

     The total energy is F=E-TS. E is the sum of the following terms:
     one-electron contribution =  -14797.22502740 Ry
     hartree contribution      =    7483.84053184 Ry
     xc contribution           =    -951.61107930 Ry
     ewald contribution        =    6365.83313880 Ry
     electric field correction =       0.00076975 Ry
     one-center paw contrib.   =   -6289.48830448 Ry

     convergence has been achieved in  40 iterations

     negative rho (up, down):  1.050E-04 0.000E+00

     Forces acting on atoms (cartesian axes, Ry/au):

     atom    1 type  1   force =    -0.03166231    0.00000046   -0.00418468
     atom    2 type  1   force =    -0.00043480    0.00000086   -0.00159051
     atom    3 type  1   force =    -0.02931293   -0.00000006    0.01369725
     atom    4 type  1   force =     0.00043053    0.00000046    0.00043611
     atom    5 type  1   force =    -0.00773319   -0.00000003   -0.00226868
     atom    6 type  1   force =     0.00081889    0.00000001   -0.00017616
     atom    7 type  1   force =    -0.00563914   -0.00000062   -0.00074313
     atom    8 type  1   force =     0.00368372   -0.00000090   -0.00037971
     atom    9 type  1   force =     0.00005347   -0.00000042    0.00103517
     atom   10 type  1   force =     0.00763622    0.00000070    0.00645101
     atom   11 type  1   force =     0.00046031    0.00000055    0.00043400
     atom   12 type  1   force =     0.03138666   -0.00000439   -0.01078951
     atom   13 type  1   force =    -0.00105804    0.00000046   -0.00078129
     atom   14 type  1   force =     0.07393594    0.00000702    0.01622921
     atom   15 type  2   force =     0.00248144   -0.00739626   -0.00504646
     atom   16 type  2   force =    -0.00005896   -0.00293873   -0.00016278
     atom   17 type  2   force =    -0.00909233   -0.00468101   -0.01375533
     atom   18 type  2   force =     0.00098189    0.00020575    0.00082189
     atom   19 type  2   force =    -0.00095590   -0.00244139   -0.00015999
     atom   20 type  2   force =     0.00315229   -0.00300442    0.00196367
     atom   21 type  2   force =     0.00017123   -0.00081397    0.00041963
     atom   22 type  2   force =     0.00298801   -0.00916615    0.00858662
     atom   23 type  2   force =    -0.00100531   -0.00051602   -0.00035621
     atom   24 type  2   force =     0.02758433   -0.00629973   -0.01554305
     atom   25 type  2   force =     0.00099159    0.00017992    0.00025245
     atom   26 type  2   force =    -0.09339624   -0.12011582   -0.00003132
     atom   27 type  2   force =     0.04526316   -0.05442550    0.01423698
     atom   28 type  2   force =    -0.00038726   -0.00004341    0.00009013
     atom   29 type  2   force =     0.00248144    0.00739623   -0.00504643
     atom   30 type  2   force =    -0.00005906    0.00293839   -0.00016261
     atom   31 type  2   force =    -0.00909230    0.00468116   -0.01375534
     atom   32 type  2   force =     0.00098192   -0.00020557    0.00082193
     atom   33 type  2   force =    -0.00095593    0.00244139   -0.00015995
     atom   34 type  2   force =     0.00315233    0.00300479    0.00196386
     atom   35 type  2   force =     0.00017123    0.00081400    0.00041966
     atom   36 type  2   force =     0.00298729    0.00916563    0.00858652
     atom   37 type  2   force =    -0.00100534    0.00051593   -0.00035617
     atom   38 type  2   force =     0.02758174    0.00630367   -0.01554328
     atom   39 type  2   force =     0.00099156   -0.00017977    0.00025247
     atom   40 type  2   force =    -0.09339389    0.12010830   -0.00003307
     atom   41 type  2   force =     0.04526305    0.05442527    0.01423696
     atom   42 type  2   force =    -0.00038731    0.00004321    0.00009014

     Total force =     0.262883     Total SCF correction =     0.002783

     Writing all to output data dir ./calc.save/
 
     init_run     :     58.83s CPU     59.62s WALL (       1 calls)
     electrons    :   3322.87s CPU   3367.89s WALL (       1 calls)
     forces       :     18.78s CPU     18.93s WALL (       1 calls)

     Called by init_run:
     wfcinit      :     54.45s CPU     54.92s WALL (       1 calls)
     potinit      :      1.45s CPU      1.48s WALL (       1 calls)
     hinit0       :      2.07s CPU      2.24s WALL (       1 calls)

     Called by electrons:
     c_bands      :   2845.50s CPU   2880.42s WALL (      40 calls)
     sum_band     :    422.31s CPU    429.13s WALL (      40 calls)
     v_of_rho     :      5.81s CPU      5.93s WALL (      41 calls)
     newd         :     17.86s CPU     20.76s WALL (      41 calls)
     PAW_pot      :     15.73s CPU     15.74s WALL (      41 calls)
     mix_rho      :     16.01s CPU     16.15s WALL (      40 calls)

     Called by c_bands:
     init_us_2    :     43.50s CPU     43.58s WALL (    6068 calls)
     init_us_2:cp :     43.46s CPU     43.56s WALL (    6068 calls)
     cegterg      :   2645.23s CPU   2678.21s WALL (    2960 calls)

     Called by *egterg:
     cdiaghg      :    299.06s CPU    299.60s WALL (   12591 calls)
     h_psi        :   1530.75s CPU   1548.35s WALL (   12665 calls)
     s_psi        :    262.00s CPU    262.31s WALL (   12665 calls)
     g_psi        :      6.77s CPU      6.78s WALL (    9631 calls)

     Called by h_psi:
     h_psi:calbec :    271.27s CPU    272.12s WALL (   12665 calls)
     vloc_psi     :    986.17s CPU    997.03s WALL (   12665 calls)
     add_vuspsi   :    261.33s CPU    262.11s WALL (   12665 calls)

     General routines
     calbec       :    399.83s CPU    401.08s WALL (   15921 calls)
     fft          :      6.61s CPU      6.94s WALL (     542 calls)
     ffts         :      6.53s CPU      6.58s WALL (    7514 calls)
     fftw         :   1067.48s CPU   1079.34s WALL ( 2352922 calls)
     interpolate  :      0.32s CPU      0.32s WALL (      41 calls)
 
     Parallel routines
 
     PWSCF        :  56m48.24s CPU  57m46.54s WALL

 
   This run was terminated on:   3: 4:44   8Aug2023            

=------------------------------------------------------------------------------=
   JOB DONE.
=------------------------------------------------------------------------------=
