  python dir          : /home/p.schindler/.conda/envs/dft3_8/lib/python3.8/site-packages/espresso
  espresso dir        : /home/p.schindler/q-e_7-1/bin/
  pseudo dir          : /home/p.schindler/q-e_7-1/PSPs/Vanderbilt_USPP_PBE/
  ase-espresso py git : 4b1d7e3-git



     Program PWSCF v.7.1 starts on  8Aug2023 at  2: 5:57 

     This program is part of the open-source Quantum ESPRESSO suite
     for quantum simulation of materials; please cite
         "P. Giannozzi et al., J. Phys.:Condens. Matter 21 395502 (2009);
         "P. Giannozzi et al., J. Phys.:Condens. Matter 29 465901 (2017);
         "P. Giannozzi et al., J. Chem. Phys. 152 154105 (2020);
          URL http://www.quantum-espresso.org", 
     in publications or presentations arising from this work. More details at
     http://www.quantum-espresso.org/quote

     Parallel version (MPI), running on    20 processors

     MPI processes distributed on     1 nodes
     80554 MiB available memory on the printing compute node when the environment starts
 
     Reading input from pw.inp

     Current dimensions of program PWSCF are:
     Max number of different atomic species (ntypx) = 10
     Max number of k-points (npk) =  40000
     Max angular momentum in pseudopotentials (lmaxx) =  4
     Presently no symmetry can be used with electric field


     IMPORTANT: XC functional enforced from input :
     Exchange-correlation= PBE
                           (   1   4   3   4   0   0   0)
     Any further DFT definition will be discarded
     Please, verify this is what you really want

     Found identity + (  0.5000  0.5000  0.0000) symmetry
     This is a supercell, fractional translations are disabled
 
     R & G space division:  proc/nbgrp/npool/nimage =      20
     Subspace diagonalization in iterative solution of the eigenvalue problem:
     a serial algorithm will be used

 
     Parallelization info
     --------------------
     sticks:   dense  smooth     PW     G-vecs:    dense   smooth      PW
     Min         198      79     22                58118    14695    2208
     Max         199      80     23                58147    14712    2229
     Sum        3979    1585    453              1162763   293981   44371
 
     Using Slab Decomposition
 


     bravais-lattice index     =            0
     lattice parameter (alat)  =       7.5316  a.u.
     unit-cell volume          =    4410.0583 (a.u.)^3
     number of atoms/cell      =           12
     number of atomic types    =            1
     number of electrons       =       156.00
     number of Kohn-Sham states=          108
     kinetic-energy cutoff     =      62.4738  Ry
     charge density cutoff     =     624.7385  Ry
     scf convergence threshold =      7.3E-07
     mixing beta               =       0.1500
     number of iterations used =           10  local-TF  mixing
     Exchange-correlation= PBE
                           (   1   4   3   4   0   0   0)

     celldm(1)=   7.531635  celldm(2)=   0.000000  celldm(3)=   0.000000
     celldm(4)=   0.000000  celldm(5)=   0.000000  celldm(6)=   0.000000

     crystal axes: (cart. coord. in units of alat)
               a(1) = (   0.000000   0.000000  -1.000000 )  
               a(2) = (   1.000000  -1.000000   0.000000 )  
               a(3) = (  -5.161151  -5.161151  -0.000000 )  

     reciprocal axes: (cart. coord. in units 2 pi/alat)
               b(1) = (  0.000000  0.000000 -1.000000 )  
               b(2) = (  0.500000 -0.500000  0.000000 )  
               b(3) = ( -0.096878 -0.096878  0.000000 )  


     PseudoPot. # 1 for Tl read from file:
     /home/p.schindler/q-e_7-1/PSPs/Vanderbilt_USPP_PBE/Tl.UPF
     MD5 check sum: b76cf1f7e72655a2b2c53cf6385d7059
     Pseudo is Ultrasoft + core correction, Zval = 13.0
     Generated by new atomic code, or converted to UPF format
     Using radial grid of  899 points,  6 beta functions with: 
                l(1) =   0
                l(2) =   0
                l(3) =   1
                l(4) =   1
                l(5) =   2
                l(6) =   2
     Q(r) pseudized with  6 coefficients,  rinner =    1.100   1.100   1.100
                                                       1.100   1.100

     atomic species   valence    mass     pseudopotential
        Tl1           13.00   204.38000     Tl( 1.00)

     No symmetry found



   Cartesian axes

     site n.     atom                  positions (alat units)
         1           Tl1 tau(   1) = (  -1.3305256  -2.3305256  -0.0000000  )
         2           Tl1 tau(   2) = (  -2.3305256  -3.3305256  -0.0000000  )
         3           Tl1 tau(   3) = (  -3.3305256  -4.3305256  -0.0000000  )
         4           Tl1 tau(   4) = (  -1.3306256  -1.3306256  -0.0000000  )
         5           Tl1 tau(   5) = (  -2.3306256  -2.3306256  -0.0000000  )
         6           Tl1 tau(   6) = (  -3.3306256  -3.3306256  -0.0000000  )
         7           Tl1 tau(   7) = (  -0.8306256  -1.8306256  -0.5000000  )
         8           Tl1 tau(   8) = (  -1.8306256  -2.8306256  -0.5000000  )
         9           Tl1 tau(   9) = (  -2.8306256  -3.8306256  -0.5000000  )
        10           Tl1 tau(  10) = (  -1.8305256  -1.8305256  -0.5000000  )
        11           Tl1 tau(  11) = (  -2.8305256  -2.8305256  -0.5000000  )
        12           Tl1 tau(  12) = (  -3.8305256  -3.8305256  -0.5000000  )

     number of k points=    72  Gaussian smearing, width (Ry)=  0.0147
                       cart. coord. in units 2pi/alat
        k(    1) = (   0.0000000   0.0000000   0.0000000), wk =   0.0142857
        k(    2) = (   0.0500000  -0.0500000   0.0000000), wk =   0.0285714
        k(    3) = (   0.1000000  -0.1000000   0.0000000), wk =   0.0285714
        k(    4) = (   0.1500000  -0.1500000   0.0000000), wk =   0.0285714
        k(    5) = (   0.2000000  -0.2000000   0.0000000), wk =   0.0285714
        k(    6) = (  -0.2500000   0.2500000   0.0000000), wk =   0.0142857
        k(    7) = (   0.0000000   0.0000000  -0.0714286), wk =   0.0285714
        k(    8) = (   0.0500000  -0.0500000  -0.0714286), wk =   0.0285714
        k(    9) = (   0.1000000  -0.1000000  -0.0714286), wk =   0.0285714
        k(   10) = (   0.1500000  -0.1500000  -0.0714286), wk =   0.0285714
        k(   11) = (   0.2000000  -0.2000000  -0.0714286), wk =   0.0285714
        k(   12) = (  -0.2500000   0.2500000  -0.0714286), wk =   0.0285714
        k(   13) = (  -0.2000000   0.2000000  -0.0714286), wk =   0.0285714
        k(   14) = (  -0.1500000   0.1500000  -0.0714286), wk =   0.0285714
        k(   15) = (  -0.1000000   0.1000000  -0.0714286), wk =   0.0285714
        k(   16) = (  -0.0500000   0.0500000  -0.0714286), wk =   0.0285714
        k(   17) = (   0.0000000   0.0000000  -0.1428571), wk =   0.0285714
        k(   18) = (   0.0500000  -0.0500000  -0.1428571), wk =   0.0285714
        k(   19) = (   0.1000000  -0.1000000  -0.1428571), wk =   0.0285714
        k(   20) = (   0.1500000  -0.1500000  -0.1428571), wk =   0.0285714
        k(   21) = (   0.2000000  -0.2000000  -0.1428571), wk =   0.0285714
        k(   22) = (  -0.2500000   0.2500000  -0.1428571), wk =   0.0285714
        k(   23) = (  -0.2000000   0.2000000  -0.1428571), wk =   0.0285714
        k(   24) = (  -0.1500000   0.1500000  -0.1428571), wk =   0.0285714
        k(   25) = (  -0.1000000   0.1000000  -0.1428571), wk =   0.0285714
        k(   26) = (  -0.0500000   0.0500000  -0.1428571), wk =   0.0285714
        k(   27) = (   0.0000000   0.0000000  -0.2142857), wk =   0.0285714
        k(   28) = (   0.0500000  -0.0500000  -0.2142857), wk =   0.0285714
        k(   29) = (   0.1000000  -0.1000000  -0.2142857), wk =   0.0285714
        k(   30) = (   0.1500000  -0.1500000  -0.2142857), wk =   0.0285714
        k(   31) = (   0.2000000  -0.2000000  -0.2142857), wk =   0.0285714
        k(   32) = (  -0.2500000   0.2500000  -0.2142857), wk =   0.0285714
        k(   33) = (  -0.2000000   0.2000000  -0.2142857), wk =   0.0285714
        k(   34) = (  -0.1500000   0.1500000  -0.2142857), wk =   0.0285714
        k(   35) = (  -0.1000000   0.1000000  -0.2142857), wk =   0.0285714
        k(   36) = (  -0.0500000   0.0500000  -0.2142857), wk =   0.0285714
        k(   37) = (   0.0000000   0.0000000  -0.2857143), wk =   0.0285714
        k(   38) = (   0.0500000  -0.0500000  -0.2857143), wk =   0.0285714
        k(   39) = (   0.1000000  -0.1000000  -0.2857143), wk =   0.0285714
        k(   40) = (   0.1500000  -0.1500000  -0.2857143), wk =   0.0285714
        k(   41) = (   0.2000000  -0.2000000  -0.2857143), wk =   0.0285714
        k(   42) = (  -0.2500000   0.2500000  -0.2857143), wk =   0.0285714
        k(   43) = (  -0.2000000   0.2000000  -0.2857143), wk =   0.0285714
        k(   44) = (  -0.1500000   0.1500000  -0.2857143), wk =   0.0285714
        k(   45) = (  -0.1000000   0.1000000  -0.2857143), wk =   0.0285714
        k(   46) = (  -0.0500000   0.0500000  -0.2857143), wk =   0.0285714
        k(   47) = (   0.0000000   0.0000000  -0.3571429), wk =   0.0285714
        k(   48) = (   0.0500000  -0.0500000  -0.3571429), wk =   0.0285714
        k(   49) = (   0.1000000  -0.1000000  -0.3571429), wk =   0.0285714
        k(   50) = (   0.1500000  -0.1500000  -0.3571429), wk =   0.0285714
        k(   51) = (   0.2000000  -0.2000000  -0.3571429), wk =   0.0285714
        k(   52) = (  -0.2500000   0.2500000  -0.3571429), wk =   0.0285714
        k(   53) = (  -0.2000000   0.2000000  -0.3571429), wk =   0.0285714
        k(   54) = (  -0.1500000   0.1500000  -0.3571429), wk =   0.0285714
        k(   55) = (  -0.1000000   0.1000000  -0.3571429), wk =   0.0285714
        k(   56) = (  -0.0500000   0.0500000  -0.3571429), wk =   0.0285714
        k(   57) = (   0.0000000   0.0000000  -0.4285714), wk =   0.0285714
        k(   58) = (   0.0500000  -0.0500000  -0.4285714), wk =   0.0285714
        k(   59) = (   0.1000000  -0.1000000  -0.4285714), wk =   0.0285714
        k(   60) = (   0.1500000  -0.1500000  -0.4285714), wk =   0.0285714
        k(   61) = (   0.2000000  -0.2000000  -0.4285714), wk =   0.0285714
        k(   62) = (  -0.2500000   0.2500000  -0.4285714), wk =   0.0285714
        k(   63) = (  -0.2000000   0.2000000  -0.4285714), wk =   0.0285714
        k(   64) = (  -0.1500000   0.1500000  -0.4285714), wk =   0.0285714
        k(   65) = (  -0.1000000   0.1000000  -0.4285714), wk =   0.0285714
        k(   66) = (  -0.0500000   0.0500000  -0.4285714), wk =   0.0285714
        k(   67) = (  -0.0000000  -0.0000000   0.5000000), wk =   0.0142857
        k(   68) = (   0.0500000  -0.0500000   0.5000000), wk =   0.0285714
        k(   69) = (   0.1000000  -0.1000000   0.5000000), wk =   0.0285714
        k(   70) = (   0.1500000  -0.1500000   0.5000000), wk =   0.0285714
        k(   71) = (   0.2000000  -0.2000000   0.5000000), wk =   0.0285714
        k(   72) = (  -0.2500000   0.2500000   0.5000000), wk =   0.0142857

     Dense  grid:  1162763 G-vectors     FFT dimensions: (  60,  90, 450)

     Smooth grid:   293981 G-vectors     FFT dimensions: (  40,  54, 288)

     Estimated max dynamical RAM per process >     460.77 MB

     Estimated total dynamical RAM >       9.00 GB

     Initial potential from superposition of free atoms

     starting charge     155.9416, renormalised to     156.0000

     negative rho (up, down):  6.019E-01 0.000E+00
 
     Adding external electric field

     Computed dipole along edir(3) : 
        Dipole               -0.0000 Ry au,         -0.0000 Debye
        Dipole field         -0.0000 Ry au, 
 
        Potential amp.        0.0000 Ry
        Total length         53.5988 bohr
 
     Starting wfcs are  108 randomized atomic wfcs

     total cpu time spent up to now is       11.9 secs

     Self-consistent Calculation

     iteration #  1     ecut=    62.47 Ry     beta= 0.15
     Davidson diagonalization with overlap
     ethr =  1.00E-02,  avg # of iterations =  5.4

     Threshold (ethr) on eigenvalues was too large:
     Diagonalizing with lowered threshold

     Davidson diagonalization with overlap
     c_bands:  3 eigenvalues not converged
     c_bands:  2 eigenvalues not converged
     c_bands:  1 eigenvalues not converged
     c_bands:  1 eigenvalues not converged
     c_bands:  1 eigenvalues not converged
     ethr =  1.62E-04,  avg # of iterations = 14.6

     negative rho (up, down):  6.007E-01 0.000E+00
 
     Adding external electric field

     Computed dipole along edir(3) : 
        Dipole               -0.0037 Ry au,         -0.0094 Debye
        Dipole field         -0.0000 Ry au, 
 
        Potential amp.        0.0011 Ry
        Total length         53.5988 bohr
 

     total cpu time spent up to now is      120.9 secs

     total energy              =   -1739.54663170 Ry
     estimated scf accuracy    <       0.26177318 Ry

     iteration #  2     ecut=    62.47 Ry     beta= 0.15
     Davidson diagonalization with overlap
     ethr =  1.68E-04,  avg # of iterations =  1.6

     negative rho (up, down):  6.013E-01 0.000E+00
 
     Adding external electric field

     Computed dipole along edir(3) : 
        Dipole               -0.0412 Ry au,         -0.1047 Debye
        Dipole field         -0.0001 Ry au, 
 
        Potential amp.        0.0126 Ry
        Total length         53.5988 bohr
 

     total cpu time spent up to now is      150.1 secs

     total energy              =   -1739.52354807 Ry
     estimated scf accuracy    <       0.22455407 Ry

     iteration #  3     ecut=    62.47 Ry     beta= 0.15
     Davidson diagonalization with overlap
     ethr =  1.44E-04,  avg # of iterations =  2.6

     negative rho (up, down):  6.039E-01 0.000E+00
 
     Adding external electric field

     Computed dipole along edir(3) : 
        Dipole               -0.0385 Ry au,         -0.0979 Debye
        Dipole field         -0.0001 Ry au, 
 
        Potential amp.        0.0118 Ry
        Total length         53.5988 bohr
 

     total cpu time spent up to now is      182.3 secs

     total energy              =   -1739.54359737 Ry
     estimated scf accuracy    <       0.03007440 Ry

     iteration #  4     ecut=    62.47 Ry     beta= 0.15
     Davidson diagonalization with overlap
     c_bands:  1 eigenvalues not converged
     ethr =  1.93E-05,  avg # of iterations =  8.2

     negative rho (up, down):  6.199E-01 0.000E+00
 
     Adding external electric field

     Computed dipole along edir(3) : 
        Dipole               -0.0658 Ry au,         -0.1673 Debye
        Dipole field         -0.0002 Ry au, 
 
        Potential amp.        0.0201 Ry
        Total length         53.5988 bohr
 

     total cpu time spent up to now is      223.1 secs

     total energy              =   -1739.54830856 Ry
     estimated scf accuracy    <       0.02765973 Ry

     iteration #  5     ecut=    62.47 Ry     beta= 0.15
     Davidson diagonalization with overlap
     ethr =  1.77E-05,  avg # of iterations =  9.6

     negative rho (up, down):  6.180E-01 0.000E+00
 
     Adding external electric field

     Computed dipole along edir(3) : 
        Dipole               -0.0551 Ry au,         -0.1400 Debye
        Dipole field         -0.0002 Ry au, 
 
        Potential amp.        0.0168 Ry
        Total length         53.5988 bohr
 

     total cpu time spent up to now is      266.9 secs

     total energy              =   -1739.55129088 Ry
     estimated scf accuracy    <       0.00496680 Ry

     iteration #  6     ecut=    62.47 Ry     beta= 0.15
     Davidson diagonalization with overlap
     c_bands:  1 eigenvalues not converged
     c_bands:  1 eigenvalues not converged
     ethr =  3.18E-06,  avg # of iterations =  6.7

     negative rho (up, down):  6.067E-01 0.000E+00
 
     Adding external electric field

     Computed dipole along edir(3) : 
        Dipole               -0.0405 Ry au,         -0.1029 Debye
        Dipole field         -0.0001 Ry au, 
 
        Potential amp.        0.0124 Ry
        Total length         53.5988 bohr
 

     total cpu time spent up to now is      315.1 secs

     total energy              =   -1739.55438000 Ry
     estimated scf accuracy    <       0.00766626 Ry

     iteration #  7     ecut=    62.47 Ry     beta= 0.15
     Davidson diagonalization with overlap
     ethr =  3.18E-06,  avg # of iterations =  2.5

     negative rho (up, down):  6.041E-01 0.000E+00
 
     Adding external electric field

     Computed dipole along edir(3) : 
        Dipole               -0.0374 Ry au,         -0.0950 Debye
        Dipole field         -0.0001 Ry au, 
 
        Potential amp.        0.0114 Ry
        Total length         53.5988 bohr
 

     total cpu time spent up to now is      347.5 secs

     total energy              =   -1739.55617576 Ry
     estimated scf accuracy    <       0.00872751 Ry

     iteration #  8     ecut=    62.47 Ry     beta= 0.15
     Davidson diagonalization with overlap
     c_bands:  2 eigenvalues not converged
     ethr =  3.18E-06,  avg # of iterations =  5.5

     negative rho (up, down):  6.070E-01 0.000E+00
 
     Adding external electric field

     Computed dipole along edir(3) : 
        Dipole               -0.0168 Ry au,         -0.0427 Debye
        Dipole field         -0.0000 Ry au, 
 
        Potential amp.        0.0051 Ry
        Total length         53.5988 bohr
 

     total cpu time spent up to now is      383.5 secs

     total energy              =   -1739.55642337 Ry
     estimated scf accuracy    <       0.01300795 Ry

     iteration #  9     ecut=    62.47 Ry     beta= 0.15
     Davidson diagonalization with overlap
     ethr =  3.18E-06,  avg # of iterations =  2.3

     negative rho (up, down):  6.116E-01 0.000E+00
 
     Adding external electric field

     Computed dipole along edir(3) : 
        Dipole               -0.0001 Ry au,         -0.0002 Debye
        Dipole field         -0.0000 Ry au, 
 
        Potential amp.        0.0000 Ry
        Total length         53.5988 bohr
 

     total cpu time spent up to now is      415.3 secs

     total energy              =   -1739.55733722 Ry
     estimated scf accuracy    <       0.00651909 Ry

     iteration # 10     ecut=    62.47 Ry     beta= 0.15
     Davidson diagonalization with overlap
     ethr =  3.18E-06,  avg # of iterations =  1.5

     negative rho (up, down):  6.104E-01 0.000E+00
 
     Adding external electric field

     Computed dipole along edir(3) : 
        Dipole                0.0122 Ry au,          0.0309 Debye
        Dipole field          0.0000 Ry au, 
 
        Potential amp.       -0.0037 Ry
        Total length         53.5988 bohr
 

     total cpu time spent up to now is      445.3 secs

     total energy              =   -1739.55773496 Ry
     estimated scf accuracy    <       0.00699487 Ry

     iteration # 11     ecut=    62.47 Ry     beta= 0.15
     Davidson diagonalization with overlap
     c_bands:  1 eigenvalues not converged
     ethr =  3.18E-06,  avg # of iterations =  5.5

     negative rho (up, down):  6.102E-01 0.000E+00
 
     Adding external electric field

     Computed dipole along edir(3) : 
        Dipole                0.0183 Ry au,          0.0464 Debye
        Dipole field          0.0001 Ry au, 
 
        Potential amp.       -0.0056 Ry
        Total length         53.5988 bohr
 

     total cpu time spent up to now is      482.8 secs

     total energy              =   -1739.55843381 Ry
     estimated scf accuracy    <       0.00106060 Ry

     iteration # 12     ecut=    62.47 Ry     beta= 0.15
     Davidson diagonalization with overlap
     c_bands:  1 eigenvalues not converged
     ethr =  6.80E-07,  avg # of iterations =  6.9

     negative rho (up, down):  6.115E-01 0.000E+00
 
     Adding external electric field

     Computed dipole along edir(3) : 
        Dipole                0.0185 Ry au,          0.0471 Debye
        Dipole field          0.0001 Ry au, 
 
        Potential amp.       -0.0057 Ry
        Total length         53.5988 bohr
 

     total cpu time spent up to now is      522.1 secs

     total energy              =   -1739.55876518 Ry
     estimated scf accuracy    <       0.00030486 Ry

     iteration # 13     ecut=    62.47 Ry     beta= 0.15
     Davidson diagonalization with overlap
     ethr =  1.95E-07,  avg # of iterations =  2.4

     negative rho (up, down):  6.097E-01 0.000E+00
 
     Adding external electric field

     Computed dipole along edir(3) : 
        Dipole                0.0052 Ry au,          0.0131 Debye
        Dipole field          0.0000 Ry au, 
 
        Potential amp.       -0.0016 Ry
        Total length         53.5988 bohr
 

     total cpu time spent up to now is      555.1 secs

     total energy              =   -1739.55902254 Ry
     estimated scf accuracy    <       0.00015929 Ry

     iteration # 14     ecut=    62.47 Ry     beta= 0.15
     Davidson diagonalization with overlap
     ethr =  1.02E-07,  avg # of iterations =  5.2

     negative rho (up, down):  6.094E-01 0.000E+00
 
     Adding external electric field

     Computed dipole along edir(3) : 
        Dipole                0.0028 Ry au,          0.0071 Debye
        Dipole field          0.0000 Ry au, 
 
        Potential amp.       -0.0009 Ry
        Total length         53.5988 bohr
 

     total cpu time spent up to now is      598.5 secs

     total energy              =   -1739.55927278 Ry
     estimated scf accuracy    <       0.00004508 Ry

     iteration # 15     ecut=    62.47 Ry     beta= 0.15
     Davidson diagonalization with overlap
     ethr =  2.89E-08,  avg # of iterations =  2.2

     negative rho (up, down):  6.107E-01 0.000E+00
 
     Adding external electric field

     Computed dipole along edir(3) : 
        Dipole                0.0038 Ry au,          0.0096 Debye
        Dipole field          0.0000 Ry au, 
 
        Potential amp.       -0.0011 Ry
        Total length         53.5988 bohr
 

     total cpu time spent up to now is      633.8 secs

     total energy              =   -1739.55949839 Ry
     estimated scf accuracy    <       0.00001664 Ry

     iteration # 16     ecut=    62.47 Ry     beta= 0.15
     Davidson diagonalization with overlap
     c_bands:  1 eigenvalues not converged
     c_bands:  2 eigenvalues not converged
     ethr =  1.07E-08,  avg # of iterations =  6.6

     negative rho (up, down):  6.114E-01 0.000E+00
 
     Adding external electric field

     Computed dipole along edir(3) : 
        Dipole                0.0006 Ry au,          0.0016 Debye
        Dipole field          0.0000 Ry au, 
 
        Potential amp.       -0.0002 Ry
        Total length         53.5988 bohr
 

     total cpu time spent up to now is      679.8 secs

     total energy              =   -1739.55962554 Ry
     estimated scf accuracy    <       0.00001893 Ry

     iteration # 17     ecut=    62.47 Ry     beta= 0.15
     Davidson diagonalization with overlap
     ethr =  1.07E-08,  avg # of iterations =  2.3

     negative rho (up, down):  6.112E-01 0.000E+00
 
     Adding external electric field

     Computed dipole along edir(3) : 
        Dipole                0.0012 Ry au,          0.0031 Debye
        Dipole field          0.0000 Ry au, 
 
        Potential amp.       -0.0004 Ry
        Total length         53.5988 bohr
 

     total cpu time spent up to now is      717.8 secs

     total energy              =   -1739.55975691 Ry
     estimated scf accuracy    <       0.00000218 Ry

     iteration # 18     ecut=    62.47 Ry     beta= 0.15
     Davidson diagonalization with overlap
     ethr =  1.39E-09,  avg # of iterations =  3.1

     negative rho (up, down):  6.107E-01 0.000E+00
 
     Adding external electric field

     Computed dipole along edir(3) : 
        Dipole                0.0004 Ry au,          0.0009 Debye
        Dipole field          0.0000 Ry au, 
 
        Potential amp.       -0.0001 Ry
        Total length         53.5988 bohr
 

     total cpu time spent up to now is      755.8 secs

     total energy              =   -1739.55985833 Ry
     estimated scf accuracy    <       0.00000179 Ry

     iteration # 19     ecut=    62.47 Ry     beta= 0.15
     Davidson diagonalization with overlap
     ethr =  1.15E-09,  avg # of iterations =  2.7

     negative rho (up, down):  6.106E-01 0.000E+00
 
     Adding external electric field

     Computed dipole along edir(3) : 
        Dipole               -0.0001 Ry au,         -0.0003 Debye
        Dipole field         -0.0000 Ry au, 
 
        Potential amp.        0.0000 Ry
        Total length         53.5988 bohr
 

     total cpu time spent up to now is      794.7 secs

     End of self-consistent calculation

          k = 0.0000 0.0000 0.0000 ( 36883 PWs)   bands (ev):

    -7.7963  -7.7956  -7.7734  -7.7641  -7.7594  -7.7538  -7.7518  -7.7409
    -7.7327  -7.7295  -7.7096  -7.7030  -7.6984  -7.6929  -7.6735  -7.6602
    -7.6590  -7.6477  -7.6450  -7.6374  -7.6215  -7.6085  -7.6085  -7.6011
    -7.5750  -7.5711  -7.5284  -7.4664  -7.4255  -7.4137  -7.4133  -7.4098
    -7.4079  -7.4035  -7.4035  -7.4033  -7.3346  -7.3238  -7.3190  -7.3106
    -7.3066  -7.3012  -7.2938  -7.2843  -7.2809  -7.2808  -7.2750  -7.2724
    -7.2720  -7.2115  -7.2017  -7.1889  -7.1888  -7.1516  -7.1351  -7.1036
    -7.0963  -7.0922  -7.0769  -7.0571  -5.3454  -5.0215  -4.4406  -3.6175
    -2.6289  -1.6374  -1.0663  -0.8416  -0.4266   0.1679   0.8672   1.5119
     1.7163   1.9934   2.0819   2.6886   3.1801   3.4714   4.3150   4.7966
     5.0580   5.5187   5.6910   5.9152   6.3829   6.4809   6.5682   6.9979
     7.3971   7.4335   7.9540   8.1430   8.2713   8.3192   9.0234   9.1746
     9.4931   9.9163   9.9323  10.0753  10.1135  10.1453  10.3824  10.4416
    10.6575  10.8590  11.0224  11.1662

          k = 0.0500-0.0500 0.0000 ( 36871 PWs)   bands (ev):

    -7.7827  -7.7820  -7.7663  -7.7585  -7.7487  -7.7448  -7.7428  -7.7377
    -7.7269  -7.7156  -7.7004  -7.6972  -7.6900  -7.6851  -7.6646  -7.6541
    -7.6470  -7.6462  -7.6316  -7.6301  -7.6117  -7.6093  -7.6019  -7.5960
    -7.5735  -7.5726  -7.5237  -7.4688  -7.4235  -7.4202  -7.4197  -7.4162
    -7.4114  -7.4113  -7.4073  -7.4045  -7.3367  -7.3327  -7.3270  -7.3108
    -7.3107  -7.3089  -7.2987  -7.2957  -7.2858  -7.2844  -7.2743  -7.2737
    -7.2720  -7.2196  -7.2052  -7.2047  -7.2034  -7.1502  -7.1444  -7.1202
    -7.1121  -7.0936  -7.0923  -7.0720  -5.2940  -4.9702  -4.3902  -3.5690
    -2.5837  -1.5972  -1.3995  -1.1547  -0.7119  -0.0868   0.6436   1.3187
     2.0541   2.1501   2.4929   3.0665   3.2334   3.8093   4.6053   4.8418
     5.2967   5.5187   5.5869   5.9832   6.3510   6.4227   6.6363   7.0437
     7.3592   7.4658   7.9939   8.1823   8.2947   8.3416   9.0963   9.1710
     9.3161   9.7479   9.9302  10.0487  10.1738  10.2126  10.2641  10.4612
    10.5995  10.6261  10.8084  10.8895

          k = 0.1000-0.1000 0.0000 ( 36837 PWs)   bands (ev):

    -7.7458  -7.7428  -7.7423  -7.7396  -7.7285  -7.7207  -7.7199  -7.7179
    -7.7083  -7.6817  -7.6808  -7.6756  -7.6751  -7.6464  -7.6409  -7.6372
    -7.6334  -7.6211  -7.6126  -7.6089  -7.6044  -7.5869  -7.5842  -7.5806
    -7.5669  -7.5654  -7.5101  -7.4753  -7.4390  -7.4374  -7.4336  -7.4329
    -7.4304  -7.4181  -7.4180  -7.3991  -7.3573  -7.3517  -7.3425  -7.3290
    -7.3205  -7.3201  -7.3150  -7.3078  -7.3039  -7.2977  -7.2796  -7.2745
    -7.2718  -7.2516  -7.2489  -7.2431  -7.2084  -7.1716  -7.1678  -7.1601
    -7.1435  -7.1364  -7.1149  -7.0978  -5.1388  -4.8157  -4.2386  -3.4235
    -2.4481  -2.0768  -1.8060  -1.4760  -1.3239  -0.6505   0.1341   0.8670
     2.2340   3.1284   3.3918   3.4361   3.9527   4.6139   4.9757   5.0741
     5.3039   5.7444   5.7883   6.1421   6.1842   6.5394   6.8376   7.1615
     7.1802   7.6690   8.1100   8.2231   8.2957   8.5495   8.8650   9.1538
     9.2829   9.3118   9.9192   9.9323   9.9741   9.9748  10.0392  10.2425
    10.3237  10.3719  10.6377  10.6430

          k = 0.1500-0.1500 0.0000 ( 36823 PWs)   bands (ev):

    -7.7152  -7.7141  -7.7094  -7.6860  -7.6837  -7.6808  -7.6801  -7.6787
    -7.6772  -7.6687  -7.6566  -7.6405  -7.6349  -7.6127  -7.6127  -7.6106
    -7.6070  -7.5975  -7.5971  -7.5847  -7.5682  -7.5633  -7.5566  -7.5542
    -7.5529  -7.5109  -7.4903  -7.4828  -7.4738  -7.4701  -7.4561  -7.4551
    -7.4513  -7.4309  -7.4098  -7.3961  -7.3912  -7.3867  -7.3548  -7.3513
    -7.3462  -7.3457  -7.3312  -7.3235  -7.3226  -7.3224  -7.3203  -7.3015
    -7.2926  -7.2799  -7.2798  -7.2685  -7.2347  -7.2280  -7.2160  -7.2134
    -7.2031  -7.1807  -7.1384  -7.1042  -4.8775  -4.5566  -3.9852  -3.1806
    -2.7954  -2.5068  -2.2215  -1.9954  -1.2827  -1.2728  -0.4496   0.3387
     2.5262   3.6503   4.3457   4.5230   4.6179   5.0677   5.1932   5.4061
     5.6316   6.0436   6.1137   6.5093   6.7210   6.7234   6.9779   7.1634
     7.4034   7.9982   8.0946   8.2804   8.2854   8.4578   8.6873   8.8863
     9.0005   9.3627   9.4286   9.5932   9.6192   9.6527   9.6610   9.8284
     9.9763  10.0271  10.2289  10.2302

          k = 0.2000-0.2000 0.0000 ( 36772 PWs)   bands (ev):

    -7.6959  -7.6802  -7.6737  -7.6563  -7.6561  -7.6524  -7.6523  -7.6362
    -7.6324  -7.6260  -7.6210  -7.6063  -7.5980  -7.5969  -7.5963  -7.5910
    -7.5837  -7.5693  -7.5599  -7.5405  -7.5364  -7.5312  -7.5282  -7.5192
    -7.5150  -7.5106  -7.5075  -7.4746  -7.4742  -7.4722  -7.4630  -7.4578
    -7.4396  -7.4359  -7.4322  -7.4195  -7.4102  -7.4101  -7.4022  -7.3815
    -7.3795  -7.3769  -7.3626  -7.3611  -7.3533  -7.3378  -7.3346  -7.3266
    -7.3245  -7.3100  -7.3090  -7.2974  -7.2897  -7.2863  -7.2634  -7.2617
    -7.2434  -7.2255  -7.1304  -7.1124  -4.5088  -4.1922  -3.6298  -3.4585
    -3.1574  -2.8405  -2.6244  -1.9039  -1.8806  -1.0068  -0.9861  -0.1694
     2.9198   3.9448   4.0007   4.9150   5.4832   5.7005   5.9275   6.1200
     6.3139   6.5487   6.6070   6.9446   6.9455   7.4004   7.4547   7.6004
     7.6635   7.6929   7.9566   8.0639   8.4028   8.4401   8.4656   8.6145
     8.6708   8.7290   8.7901   8.8238   8.9308   9.2595   9.2925   9.3382
     9.3397   9.4211   9.5842  10.1293

          k =-0.2500 0.2500 0.0000 ( 36750 PWs)   bands (ev):

    -7.6757  -7.6757  -7.6532  -7.6532  -7.6460  -7.6460  -7.6344  -7.6344
    -7.6130  -7.6130  -7.5953  -7.5953  -7.5896  -7.5896  -7.5722  -7.5722
    -7.5483  -7.5483  -7.5281  -7.5281  -7.5271  -7.5271  -7.5156  -7.5156
    -7.5039  -7.5039  -7.5020  -7.5020  -7.4659  -7.4659  -7.4650  -7.4650
    -7.4339  -7.4339  -7.4272  -7.4272  -7.4267  -7.4267  -7.3875  -7.3875
    -7.3772  -7.3772  -7.3698  -7.3698  -7.3668  -7.3668  -7.3665  -7.3665
    -7.3477  -7.3477  -7.3221  -7.3221  -7.3101  -7.3101  -7.2923  -7.2923
    -7.2355  -7.2355  -7.1214  -7.1214  -4.0340  -4.0340  -3.7239  -3.7239
    -3.1742  -3.1742  -2.4051  -2.4051  -1.4970  -1.4970  -0.6165  -0.6165
     3.3997   3.3997   4.4295   4.4295   5.8224   5.8224   7.0708   7.0708
     7.0740   7.0740   7.1509   7.1509   7.3230   7.3230   7.4711   7.4711
     7.4734   7.4734   8.1057   8.1057   8.1302   8.1302   8.1433   8.1433
     8.2042   8.2042   8.2895   8.2895   8.9765   8.9765   9.0854   9.0854
     9.2256   9.2256   9.8865   9.8865

          k = 0.0000 0.0000-0.0714 ( 36873 PWs)   bands (ev):

    -7.7925  -7.7918  -7.7624  -7.7538  -7.7537  -7.7478  -7.7460  -7.7388
    -7.7282  -7.7258  -7.7028  -7.6995  -7.6955  -7.6864  -7.6673  -7.6563
    -7.6526  -7.6416  -7.6357  -7.6349  -7.6186  -7.6132  -7.6111  -7.6043
    -7.5794  -7.5558  -7.5268  -7.4619  -7.4574  -7.4114  -7.4093  -7.4077
    -7.4066  -7.4058  -7.4057  -7.3896  -7.3401  -7.3186  -7.3161  -7.3129
    -7.3110  -7.3029  -7.3000  -7.2834  -7.2832  -7.2820  -7.2754  -7.2729
    -7.2584  -7.2177  -7.2107  -7.2000  -7.1999  -7.1515  -7.1362  -7.1140
    -7.1072  -7.1057  -7.0884  -7.0706  -5.2926  -4.9678  -4.3868  -3.5662
    -2.5842  -1.6036  -1.0414  -0.8192  -0.4120   0.1615   0.8128   1.3760
     1.7871   2.0587   2.1513   2.7563   3.2272   3.5381   4.3819   4.8229
     5.1264   5.2763   5.3309   5.8940   5.9040   6.3999   6.7154   6.8613
     7.0394   7.6461   7.9488   7.9700   8.1637   8.5238   8.9639   9.0451
     9.4628   9.7723   9.8588  10.0670  10.1490  10.2730  10.2812  10.4638
    10.4829  10.6614  10.7618  11.1532

          k = 0.0500-0.0500-0.0714 ( 36851 PWs)   bands (ev):

    -7.7836  -7.7830  -7.7555  -7.7494  -7.7425  -7.7358  -7.7353  -7.7335
    -7.7222  -7.7155  -7.6989  -7.6912  -7.6860  -7.6824  -7.6566  -7.6480
    -7.6468  -7.6396  -7.6273  -7.6243  -7.6163  -7.6085  -7.6025  -7.5998
    -7.5785  -7.5531  -7.5207  -7.4639  -7.4577  -7.4175  -7.4153  -7.4132
    -7.4122  -7.4109  -7.4053  -7.3932  -7.3430  -7.3265  -7.3240  -7.3166
    -7.3093  -7.3092  -7.3057  -7.2951  -7.2873  -7.2855  -7.2753  -7.2743
    -7.2631  -7.2291  -7.2129  -7.2123  -7.2108  -7.1569  -7.1524  -7.1189
    -7.1189  -7.1064  -7.1015  -7.0845  -5.2409  -4.9164  -4.3363  -3.5177
    -2.5390  -1.5635  -1.3663  -1.1238  -0.6876  -0.0799   0.6102   1.2152
     2.1190   2.2102   2.5497   3.1160   3.2796   3.8385   4.5523   4.8654
     4.9722   5.3921   5.6920   5.8423   5.9823   6.4349   6.7498   6.7745
     7.0838   7.6997   7.8677   8.0015   8.1962   8.5789   8.7501   8.9218
     9.1542   9.7577   9.8150   9.8233  10.2028  10.2901  10.3423  10.3851
    10.5624  10.7420  10.8390  10.8721

          k = 0.1000-0.1000-0.0714 ( 36829 PWs)   bands (ev):

    -7.7565  -7.7559  -7.7361  -7.7310  -7.7265  -7.7160  -7.7041  -7.7020
    -7.7001  -7.6883  -7.6848  -7.6697  -7.6686  -7.6582  -7.6320  -7.6307
    -7.6267  -7.6233  -7.6171  -7.6127  -7.5989  -7.5952  -7.5847  -7.5790
    -7.5742  -7.5338  -7.5044  -7.4700  -7.4598  -7.4369  -7.4329  -7.4312
    -7.4272  -7.4230  -7.4046  -7.3961  -7.3573  -7.3479  -7.3418  -7.3290
    -7.3259  -7.3204  -7.3134  -7.3075  -7.3039  -7.3011  -7.2791  -7.2775
    -7.2771  -7.2690  -7.2440  -7.2418  -7.2124  -7.2077  -7.1654  -7.1464
    -7.1403  -7.1338  -7.1243  -7.1090  -5.0851  -4.7615  -4.1846  -3.3721
    -2.4034  -2.0333  -1.7639  -1.4428  -1.2859  -0.6240   0.1337   0.8179
     2.2977   3.1703   3.4347   3.4686   3.9588   4.5291   4.8357   4.9829
     4.9899   5.2054   6.0022   6.1851   6.5000   6.5332   6.6042   6.9500
     7.2142   7.6572   7.8763   8.0556   8.1785   8.2751   8.5524   8.7645
     8.7948   9.2556   9.5814   9.6611  10.1042  10.1745  10.2025  10.4889
    10.4970  10.5179  10.8111  10.8241

          k = 0.1500-0.1500-0.0714 ( 36819 PWs)   bands (ev):

    -7.7146  -7.7135  -7.7128  -7.7042  -7.7023  -7.6799  -7.6740  -7.6699
    -7.6611  -7.6557  -7.6493  -7.6384  -7.6383  -7.6266  -7.6218  -7.6070
    -7.6069  -7.6026  -7.5993  -7.5828  -7.5788  -7.5658  -7.5648  -7.5542
    -7.5507  -7.4909  -7.4844  -7.4830  -7.4686  -7.4682  -7.4611  -7.4478
    -7.4385  -7.4313  -7.4152  -7.3911  -7.3855  -7.3810  -7.3628  -7.3581
    -7.3455  -7.3399  -7.3335  -7.3257  -7.3226  -7.3212  -7.3208  -7.3031
    -7.2891  -7.2887  -7.2814  -7.2793  -7.2618  -7.2167  -7.2109  -7.2018
    -7.1847  -7.1721  -7.1412  -7.1138  -4.8230  -4.5019  -3.9310  -3.1292
    -2.7454  -2.4577  -2.1772  -1.9488  -1.2434  -1.2405  -0.4277   0.3286
     2.5881   3.6866   4.3667   4.5444   4.6166   4.9938   5.0159   5.1851
     5.3150   5.3218   5.8838   6.6642   6.9017   6.9738   7.1409   7.3330
     7.4109   7.4908   7.5976   7.9154   8.1218   8.1460   8.3107   8.6035
     8.7868   9.0825   9.1924   9.2680   9.5125   9.9149   9.9215   9.9826
    10.1581  10.3834  10.5566  10.6922

          k = 0.2000-0.2000-0.0714 ( 36789 PWs)   bands (ev):

    -7.6967  -7.6717  -7.6701  -7.6696  -7.6649  -7.6548  -7.6532  -7.6349
    -7.6347  -7.6321  -7.6223  -7.6173  -7.6136  -7.5998  -7.5936  -7.5832
    -7.5795  -7.5681  -7.5657  -7.5512  -7.5487  -7.5486  -7.5397  -7.5369
    -7.5322  -7.4916  -7.4910  -7.4866  -7.4833  -7.4798  -7.4719  -7.4384
    -7.4336  -7.4281  -7.4204  -7.4120  -7.4037  -7.4032  -7.3932  -7.3907
    -7.3802  -7.3735  -7.3599  -7.3584  -7.3541  -7.3537  -7.3283  -7.3282
    -7.3278  -7.3041  -7.3034  -7.2868  -7.2798  -7.2680  -7.2603  -7.2535
    -7.2224  -7.2106  -7.1357  -7.1205  -4.4538  -4.1372  -3.5756  -3.4051
    -3.1045  -2.7895  -2.5732  -1.8607  -1.8343  -0.9726  -0.9565  -0.1573
     2.9790   3.9917   4.0238   4.8210   5.4208   5.5538   5.6957   5.8526
     5.8919   6.0805   6.0808   6.7188   6.8645   6.8778   7.2952   7.6097
     7.7729   7.9345   7.9467   8.0776   8.0852   8.1514   8.1831   8.3328
     8.5523   8.7385   8.7698   8.9393   9.1353   9.4900   9.6031   9.6088
     9.7344   9.7856   9.8780   9.9693

          k =-0.2500 0.2500-0.0714 ( 36742 PWs)   bands (ev):

    -7.6779  -7.6779  -7.6507  -7.6507  -7.6430  -7.6430  -7.6358  -7.6358
    -7.6159  -7.6159  -7.6145  -7.6145  -7.5884  -7.5884  -7.5744  -7.5744
    -7.5581  -7.5581  -7.5569  -7.5569  -7.5305  -7.5305  -7.5229  -7.5229
    -7.5195  -7.5195  -7.4899  -7.4899  -7.4713  -7.4713  -7.4650  -7.4650
    -7.4357  -7.4357  -7.4300  -7.4300  -7.4231  -7.4231  -7.3978  -7.3978
    -7.3899  -7.3899  -7.3622  -7.3622  -7.3508  -7.3508  -7.3474  -7.3474
    -7.3136  -7.3136  -7.3061  -7.3061  -7.2993  -7.2993  -7.2905  -7.2905
    -7.2251  -7.2251  -7.1283  -7.1283  -3.9791  -3.9791  -3.6693  -3.6693
    -3.1208  -3.1208  -2.3555  -2.3555  -1.4566  -1.4566  -0.5927  -0.5927
     3.4547   3.4547   4.4228   4.4228   5.6063   5.6063   6.3199   6.3199
     6.5122   6.5122   6.8780   6.8780   7.0609   7.0609   7.1178   7.1178
     7.1703   7.1703   7.9064   7.9064   8.2630   8.2630   8.8466   8.8466
     8.8524   8.8524   8.9393   8.9393   8.9617   8.9617   9.0414   9.0414
     9.4205   9.4205   9.5560   9.5560

          k =-0.2000 0.2000-0.0714 ( 36789 PWs)   bands (ev):

    -7.6967  -7.6717  -7.6701  -7.6696  -7.6649  -7.6548  -7.6532  -7.6349
    -7.6347  -7.6321  -7.6223  -7.6173  -7.6136  -7.5998  -7.5936  -7.5832
    -7.5795  -7.5681  -7.5657  -7.5512  -7.5487  -7.5486  -7.5397  -7.5369
    -7.5322  -7.4916  -7.4910  -7.4866  -7.4833  -7.4798  -7.4719  -7.4384
    -7.4336  -7.4281  -7.4204  -7.4120  -7.4037  -7.4032  -7.3932  -7.3907
    -7.3802  -7.3735  -7.3599  -7.3584  -7.3541  -7.3537  -7.3283  -7.3282
    -7.3278  -7.3041  -7.3034  -7.2868  -7.2798  -7.2680  -7.2603  -7.2535
    -7.2224  -7.2106  -7.1357  -7.1205  -4.4538  -4.1372  -3.5756  -3.4051
    -3.1045  -2.7895  -2.5732  -1.8607  -1.8343  -0.9726  -0.9565  -0.1573
     2.9790   3.9917   4.0238   4.8210   5.4208   5.5538   5.6957   5.8526
     5.8919   6.0805   6.0808   6.7188   6.8645   6.8778   7.2952   7.6097
     7.7729   7.9345   7.9467   8.0776   8.0852   8.1514   8.1831   8.3328
     8.5523   8.7385   8.7698   8.9393   9.1353   9.4900   9.6031   9.6088
     9.7344   9.7856   9.8779   9.9693

          k =-0.1500 0.1500-0.0714 ( 36819 PWs)   bands (ev):

    -7.7146  -7.7135  -7.7128  -7.7042  -7.7023  -7.6799  -7.6740  -7.6699
    -7.6611  -7.6557  -7.6493  -7.6384  -7.6383  -7.6266  -7.6218  -7.6070
    -7.6069  -7.6026  -7.5993  -7.5828  -7.5788  -7.5658  -7.5648  -7.5542
    -7.5507  -7.4909  -7.4844  -7.4830  -7.4686  -7.4682  -7.4611  -7.4478
    -7.4385  -7.4313  -7.4152  -7.3911  -7.3855  -7.3810  -7.3628  -7.3581
    -7.3455  -7.3399  -7.3335  -7.3257  -7.3226  -7.3212  -7.3208  -7.3031
    -7.2891  -7.2887  -7.2814  -7.2793  -7.2618  -7.2167  -7.2109  -7.2018
    -7.1847  -7.1721  -7.1412  -7.1138  -4.8230  -4.5019  -3.9310  -3.1292
    -2.7454  -2.4577  -2.1772  -1.9488  -1.2434  -1.2405  -0.4277   0.3286
     2.5881   3.6866   4.3667   4.5444   4.6166   4.9938   5.0159   5.1851
     5.3150   5.3218   5.8838   6.6642   6.9017   6.9738   7.1409   7.3330
     7.4109   7.4908   7.5976   7.9154   8.1218   8.1460   8.3107   8.6035
     8.7868   9.0825   9.1924   9.2680   9.5125   9.9148   9.9215   9.9826
    10.1581  10.3835  10.5567  10.6926

          k =-0.1000 0.1000-0.0714 ( 36829 PWs)   bands (ev):

    -7.7565  -7.7559  -7.7361  -7.7310  -7.7265  -7.7160  -7.7041  -7.7020
    -7.7001  -7.6883  -7.6848  -7.6697  -7.6686  -7.6582  -7.6320  -7.6307
    -7.6267  -7.6233  -7.6171  -7.6127  -7.5989  -7.5952  -7.5847  -7.5790
    -7.5742  -7.5338  -7.5044  -7.4700  -7.4598  -7.4369  -7.4329  -7.4312
    -7.4272  -7.4230  -7.4046  -7.3961  -7.3573  -7.3479  -7.3418  -7.3290
    -7.3259  -7.3204  -7.3134  -7.3075  -7.3039  -7.3011  -7.2791  -7.2775
    -7.2771  -7.2690  -7.2440  -7.2418  -7.2124  -7.2077  -7.1654  -7.1464
    -7.1403  -7.1338  -7.1243  -7.1090  -5.0851  -4.7615  -4.1846  -3.3721
    -2.4034  -2.0333  -1.7639  -1.4428  -1.2859  -0.6240   0.1337   0.8179
     2.2977   3.1703   3.4347   3.4686   3.9588   4.5291   4.8357   4.9829
     4.9899   5.2054   6.0022   6.1851   6.5000   6.5332   6.6042   6.9500
     7.2142   7.6572   7.8763   8.0556   8.1785   8.2751   8.5524   8.7645
     8.7948   9.2556   9.5814   9.6611  10.1040  10.1745  10.2025  10.4889
    10.4975  10.5179  10.8236  10.8619

          k =-0.0500 0.0500-0.0714 ( 36851 PWs)   bands (ev):

    -7.7836  -7.7830  -7.7555  -7.7494  -7.7425  -7.7358  -7.7353  -7.7335
    -7.7222  -7.7155  -7.6989  -7.6912  -7.6860  -7.6824  -7.6566  -7.6480
    -7.6468  -7.6396  -7.6273  -7.6243  -7.6163  -7.6085  -7.6025  -7.5998
    -7.5785  -7.5531  -7.5207  -7.4639  -7.4577  -7.4175  -7.4153  -7.4132
    -7.4122  -7.4109  -7.4053  -7.3932  -7.3430  -7.3265  -7.3240  -7.3166
    -7.3093  -7.3092  -7.3057  -7.2951  -7.2873  -7.2855  -7.2753  -7.2743
    -7.2631  -7.2291  -7.2129  -7.2123  -7.2108  -7.1569  -7.1524  -7.1189
    -7.1189  -7.1064  -7.1015  -7.0845  -5.2409  -4.9164  -4.3363  -3.5177
    -2.5390  -1.5635  -1.3663  -1.1238  -0.6876  -0.0799   0.6102   1.2152
     2.1190   2.2102   2.5497   3.1160   3.2796   3.8385   4.5523   4.8654
     4.9722   5.3921   5.6920   5.8423   5.9823   6.4349   6.7498   6.7745
     7.0838   7.6997   7.8677   8.0015   8.1962   8.5789   8.7501   8.9218
     9.1542   9.7577   9.8150   9.8233  10.2028  10.2901  10.3423  10.3851
    10.5624  10.7420  10.8390  10.8721

          k = 0.0000 0.0000-0.1429 ( 36875 PWs)   bands (ev):

    -7.7807  -7.7802  -7.7374  -7.7344  -7.7324  -7.7314  -7.7287  -7.7268
    -7.7148  -7.7144  -7.7035  -7.6864  -7.6741  -7.6619  -7.6503  -7.6481
    -7.6361  -7.6318  -7.6307  -7.6245  -7.6218  -7.6096  -7.6040  -7.5935
    -7.5814  -7.5275  -7.5224  -7.5006  -7.4479  -7.4231  -7.4127  -7.4127
    -7.4079  -7.4057  -7.3990  -7.3791  -7.3446  -7.3313  -7.3129  -7.3111
    -7.3092  -7.2966  -7.2948  -7.2946  -7.2906  -7.2812  -7.2769  -7.2739
    -7.2422  -7.2339  -7.2332  -7.2320  -7.2310  -7.1519  -7.1440  -7.1437
    -7.1401  -7.1388  -7.1206  -7.1084  -5.1335  -4.8067  -4.2262  -3.4138
    -2.4514  -1.5038  -0.9685  -0.7557  -0.3764   0.1243   0.6224   0.9712
     1.9973   2.2520   2.3573   2.9575   3.3640   3.7362   4.5805   4.7000
     4.8045   4.8882   5.1898   5.3297   5.5467   6.2569   6.4208   6.4646
     7.1536   7.4626   7.4716   7.9536   8.1554   8.1780   8.5607   8.7351
     9.3516   9.5037   9.5340   9.5963   9.8861  10.0450  10.1551  10.2553
    10.3406  10.3874  10.6067  10.6596

          k = 0.0500-0.0500-0.1429 ( 36861 PWs)   bands (ev):

    -7.7817  -7.7813  -7.7313  -7.7301  -7.7232  -7.7217  -7.7158  -7.7132
    -7.7101  -7.7093  -7.6995  -7.6857  -7.6686  -7.6593  -7.6550  -7.6335
    -7.6334  -7.6304  -7.6272  -7.6155  -7.6086  -7.5977  -7.5960  -7.5953
    -7.5833  -7.5187  -7.5140  -7.4992  -7.4487  -7.4276  -7.4187  -7.4176
    -7.4105  -7.4069  -7.4010  -7.3841  -7.3462  -7.3337  -7.3195  -7.3170
    -7.3129  -7.3047  -7.2993  -7.2972  -7.2959  -7.2844  -7.2838  -7.2738
    -7.2650  -7.2480  -7.2374  -7.2286  -7.2268  -7.1866  -7.1685  -7.1421
    -7.1339  -7.1315  -7.1174  -7.1143  -5.0813  -4.7549  -4.1756  -3.3652
    -2.4063  -1.4641  -1.2695  -1.0353  -0.6226  -0.0766   0.4793   0.8840
     2.3111   2.3875   2.7152   3.2503   3.4125   3.8624   4.2395   4.5701
     4.9191   5.2093   5.2870   5.5777   5.9552   6.1928   6.4308   6.5405
     7.1881   7.3360   7.5231   7.7178   7.9950   8.1371   8.2036   8.5823
     9.0046   9.3019   9.5032   9.8538   9.9788  10.1012  10.2813  10.3416
    10.4325  10.4532  10.7088  10.7431

          k = 0.1000-0.1000-0.1429 ( 36820 PWs)   bands (ev):

    -7.7720  -7.7716  -7.7234  -7.7116  -7.7070  -7.7063  -7.6980  -7.6929
    -7.6855  -7.6824  -7.6768  -7.6694  -7.6547  -7.6522  -7.6509  -7.6389
    -7.6149  -7.6135  -7.6092  -7.5895  -7.5892  -7.5845  -7.5842  -7.5811
    -7.5806  -7.4955  -7.4951  -7.4913  -7.4521  -7.4408  -7.4348  -7.4312
    -7.4214  -7.4170  -7.4013  -7.3874  -7.3541  -7.3423  -7.3389  -7.3344
    -7.3230  -7.3186  -7.3183  -7.3121  -7.3097  -7.3021  -7.2956  -7.2867
    -7.2840  -7.2732  -7.2589  -7.2477  -7.2369  -7.2213  -7.1868  -7.1553
    -7.1516  -7.1397  -7.1265  -7.1148  -4.9238  -4.5991  -4.0234  -3.2195
    -2.2711  -1.9052  -1.6411  -1.3450  -1.1781  -0.5569   0.1069   0.6346
     2.4862   3.2880   3.5479   3.5549   3.9149   4.1103   4.1219   4.3482
     5.0007   5.3390   5.7745   6.0192   6.3995   6.4257   6.5011   7.0376
     7.0606   7.2062   7.2486   7.5629   7.6819   7.8642   8.0318   8.2624
     8.6140   9.0064   9.3124   9.3171  10.0427  10.0816  10.1009  10.4729
    10.5798  10.6471  10.6657  10.8627

          k = 0.1500-0.1500-0.1429 ( 36800 PWs)   bands (ev):

    -7.7444  -7.7439  -7.7116  -7.6973  -7.6808  -7.6762  -7.6666  -7.6648
    -7.6592  -7.6534  -7.6527  -7.6520  -7.6390  -7.6386  -7.6367  -7.6239
    -7.6021  -7.5957  -7.5896  -7.5788  -7.5786  -7.5698  -7.5615  -7.5588
    -7.5580  -7.4925  -7.4884  -7.4647  -7.4615  -7.4511  -7.4502  -7.4491
    -7.4454  -7.4219  -7.3849  -7.3827  -7.3797  -7.3684  -7.3661  -7.3635
    -7.3615  -7.3396  -7.3346  -7.3310  -7.3224  -7.3214  -7.3206  -7.3028
    -7.2975  -7.2949  -7.2857  -7.2784  -7.2584  -7.2167  -7.2091  -7.1880
    -7.1879  -7.1395  -7.1363  -7.1345  -4.6598  -4.3384  -3.7694  -2.9768
    -2.5977  -2.3129  -2.0464  -1.8130  -1.1472  -1.1330  -0.3780   0.2703
     2.7701   3.7784   4.1687   4.2217   4.4110   4.5095   4.5976   4.6284
     4.9440   5.0877   5.9653   6.2731   6.4164   6.6526   6.8577   6.9206
     7.2640   7.3014   7.4641   7.6906   7.7766   7.8436   8.0564   8.2458
     8.2624   8.9365   8.9399   9.0111   9.1666   9.5150  10.1121  10.3860
    10.4366  10.6035  10.8752  10.9662

          k = 0.2000-0.2000-0.1429 ( 36772 PWs)   bands (ev):

    -7.7041  -7.7021  -7.6969  -7.6832  -7.6572  -7.6565  -7.6544  -7.6424
    -7.6353  -7.6350  -7.6272  -7.6243  -7.6220  -7.6154  -7.6036  -7.6013
    -7.5922  -7.5827  -7.5737  -7.5684  -7.5624  -7.5599  -7.5581  -7.5561
    -7.5531  -7.5184  -7.4896  -7.4760  -7.4732  -7.4723  -7.4527  -7.4513
    -7.4423  -7.4229  -7.4134  -7.4046  -7.3970  -7.3936  -7.3864  -7.3736
    -7.3638  -7.3565  -7.3511  -7.3452  -7.3445  -7.3384  -7.3289  -7.3077
    -7.3035  -7.3002  -7.2882  -7.2799  -7.2784  -7.2548  -7.2279  -7.2173
    -7.2111  -7.1663  -7.1440  -7.1418  -4.2894  -3.9732  -3.4144  -3.2466
    -2.9478  -2.6387  -2.4220  -1.7344  -1.7002  -0.8792  -0.8733  -0.1379
     3.1504   4.0505   4.0581   4.3105   4.6497   4.9079   5.0727   5.4174
     5.5533   5.6394   5.7646   5.7930   5.9860   6.5377   6.8346   6.9552
     7.5106   7.7495   7.7586   7.7872   8.0097   8.1275   8.1886   8.5672
     8.6128   8.7566   8.9717   9.0439   9.0880   9.2249   9.8286  10.0447
    10.0646  10.0960  10.3443  10.5155

          k =-0.2500 0.2500-0.1429 ( 36764 PWs)   bands (ev):

    -7.6836  -7.6836  -7.6695  -7.6695  -7.6582  -7.6582  -7.6525  -7.6525
    -7.6228  -7.6228  -7.6085  -7.6085  -7.5952  -7.5952  -7.5896  -7.5896
    -7.5818  -7.5818  -7.5805  -7.5805  -7.5649  -7.5649  -7.5490  -7.5490
    -7.5243  -7.5243  -7.5120  -7.5120  -7.4978  -7.4978  -7.4462  -7.4462
    -7.4257  -7.4257  -7.4165  -7.4165  -7.4046  -7.4046  -7.3850  -7.3850
    -7.3804  -7.3804  -7.3456  -7.3456  -7.3380  -7.3380  -7.3149  -7.3149
    -7.2959  -7.2959  -7.2898  -7.2898  -7.2705  -7.2705  -7.2523  -7.2523
    -7.1958  -7.1958  -7.1445  -7.1445  -3.8158  -3.8158  -3.5069  -3.5069
    -2.9623  -2.9623  -2.2096  -2.2096  -1.3408  -1.3408  -0.5309  -0.5309
     3.6043   3.6043   4.2791   4.2791   4.8760   4.8760   5.3251   5.3251
     5.6557   5.6557   6.0420   6.0420   6.6444   6.6444   6.7256   6.7256
     6.9157   6.9157   7.9796   7.9796   8.4062   8.4062   8.8175   8.8175
     8.8917   8.8917   9.3438   9.3438   9.4086   9.4086   9.5406   9.5406
     9.6488   9.6488   9.7781   9.7781

          k =-0.2000 0.2000-0.1429 ( 36772 PWs)   bands (ev):

    -7.7041  -7.7021  -7.6969  -7.6832  -7.6572  -7.6565  -7.6544  -7.6424
    -7.6353  -7.6350  -7.6272  -7.6243  -7.6220  -7.6154  -7.6036  -7.6013
    -7.5922  -7.5827  -7.5737  -7.5684  -7.5624  -7.5599  -7.5581  -7.5561
    -7.5531  -7.5184  -7.4896  -7.4760  -7.4732  -7.4723  -7.4527  -7.4513
    -7.4423  -7.4229  -7.4134  -7.4046  -7.3970  -7.3936  -7.3864  -7.3736
    -7.3638  -7.3565  -7.3511  -7.3452  -7.3445  -7.3384  -7.3289  -7.3077
    -7.3035  -7.3002  -7.2882  -7.2799  -7.2784  -7.2548  -7.2279  -7.2173
    -7.2111  -7.1663  -7.1440  -7.1418  -4.2894  -3.9732  -3.4144  -3.2466
    -2.9478  -2.6387  -2.4220  -1.7344  -1.7002  -0.8792  -0.8733  -0.1379
     3.1504   4.0505   4.0581   4.3105   4.6497   4.9079   5.0727   5.4174
     5.5533   5.6394   5.7646   5.7930   5.9860   6.5377   6.8346   6.9552
     7.5106   7.7495   7.7586   7.7872   8.0097   8.1275   8.1886   8.5672
     8.6128   8.7566   8.9717   9.0439   9.0880   9.2249   9.8286  10.0447
    10.0647  10.0960  10.3454  10.5168

          k =-0.1500 0.1500-0.1429 ( 36800 PWs)   bands (ev):

    -7.7444  -7.7439  -7.7116  -7.6973  -7.6808  -7.6762  -7.6666  -7.6648
    -7.6592  -7.6534  -7.6527  -7.6520  -7.6390  -7.6386  -7.6367  -7.6239
    -7.6021  -7.5957  -7.5896  -7.5788  -7.5786  -7.5698  -7.5615  -7.5588
    -7.5580  -7.4925  -7.4884  -7.4647  -7.4615  -7.4511  -7.4502  -7.4491
    -7.4454  -7.4219  -7.3849  -7.3827  -7.3797  -7.3684  -7.3661  -7.3635
    -7.3615  -7.3396  -7.3346  -7.3310  -7.3224  -7.3214  -7.3206  -7.3028
    -7.2975  -7.2949  -7.2857  -7.2784  -7.2584  -7.2167  -7.2091  -7.1880
    -7.1879  -7.1395  -7.1363  -7.1345  -4.6598  -4.3384  -3.7694  -2.9768
    -2.5977  -2.3129  -2.0464  -1.8130  -1.1472  -1.1330  -0.3780   0.2703
     2.7701   3.7784   4.1687   4.2217   4.4110   4.5095   4.5976   4.6284
     4.9440   5.0877   5.9653   6.2731   6.4164   6.6526   6.8577   6.9206
     7.2640   7.3014   7.4641   7.6906   7.7766   7.8436   8.0564   8.2458
     8.2624   8.9365   8.9399   9.0111   9.1666   9.5150  10.1121  10.3862
    10.4366  10.6035  10.8323  10.8775

          k =-0.1000 0.1000-0.1429 ( 36820 PWs)   bands (ev):

    -7.7720  -7.7716  -7.7234  -7.7116  -7.7070  -7.7063  -7.6980  -7.6929
    -7.6855  -7.6824  -7.6768  -7.6694  -7.6547  -7.6522  -7.6509  -7.6389
    -7.6149  -7.6135  -7.6092  -7.5895  -7.5892  -7.5845  -7.5842  -7.5811
    -7.5806  -7.4955  -7.4951  -7.4913  -7.4521  -7.4408  -7.4348  -7.4312
    -7.4214  -7.4170  -7.4013  -7.3874  -7.3541  -7.3423  -7.3389  -7.3344
    -7.3230  -7.3186  -7.3183  -7.3121  -7.3097  -7.3021  -7.2956  -7.2867
    -7.2840  -7.2732  -7.2589  -7.2477  -7.2369  -7.2213  -7.1868  -7.1553
    -7.1516  -7.1397  -7.1265  -7.1148  -4.9238  -4.5991  -4.0234  -3.2195
    -2.2711  -1.9052  -1.6411  -1.3450  -1.1781  -0.5569   0.1069   0.6346
     2.4862   3.2880   3.5479   3.5549   3.9149   4.1103   4.1219   4.3482
     5.0007   5.3390   5.7745   6.0192   6.3995   6.4257   6.5011   7.0376
     7.0606   7.2062   7.2486   7.5629   7.6819   7.8642   8.0318   8.2624
     8.6139   9.0064   9.3124   9.3171  10.0427  10.0816  10.1009  10.4729
    10.5799  10.6449  10.6658  10.7212

          k =-0.0500 0.0500-0.1429 ( 36861 PWs)   bands (ev):

    -7.7817  -7.7813  -7.7313  -7.7301  -7.7232  -7.7217  -7.7158  -7.7132
    -7.7101  -7.7093  -7.6995  -7.6857  -7.6686  -7.6593  -7.6550  -7.6335
    -7.6334  -7.6304  -7.6272  -7.6155  -7.6086  -7.5977  -7.5960  -7.5953
    -7.5833  -7.5187  -7.5140  -7.4992  -7.4487  -7.4276  -7.4187  -7.4176
    -7.4105  -7.4069  -7.4010  -7.3841  -7.3462  -7.3337  -7.3195  -7.3170
    -7.3129  -7.3047  -7.2993  -7.2972  -7.2959  -7.2844  -7.2838  -7.2738
    -7.2650  -7.2480  -7.2374  -7.2286  -7.2268  -7.1866  -7.1685  -7.1421
    -7.1339  -7.1315  -7.1174  -7.1143  -5.0813  -4.7549  -4.1756  -3.3652
    -2.4063  -1.4641  -1.2695  -1.0353  -0.6226  -0.0766   0.4793   0.8840
     2.3111   2.3875   2.7152   3.2503   3.4125   3.8624   4.2395   4.5701
     4.9191   5.2093   5.2870   5.5777   5.9552   6.1928   6.4308   6.5405
     7.1881   7.3360   7.5231   7.7178   7.9950   8.1371   8.2036   8.5823
     9.0046   9.3019   9.5032   9.8538   9.9788  10.1012  10.2813  10.3416
    10.4325  10.4532  10.7087  10.7412

          k = 0.0000 0.0000-0.2143 ( 36833 PWs)   bands (ev):

    -7.7604  -7.7602  -7.7195  -7.7161  -7.7151  -7.7138  -7.7115  -7.6946
    -7.6936  -7.6903  -7.6733  -7.6708  -7.6553  -7.6440  -7.6341  -7.6330
    -7.6282  -7.6223  -7.6206  -7.6164  -7.6071  -7.5942  -7.5755  -7.5621
    -7.5599  -7.5362  -7.5162  -7.4942  -7.4532  -7.4276  -7.4246  -7.4243
    -7.4107  -7.3994  -7.3853  -7.3846  -7.3402  -7.3391  -7.3228  -7.3165
    -7.3046  -7.3028  -7.3026  -7.2914  -7.2902  -7.2866  -7.2799  -7.2748
    -7.2729  -7.2727  -7.2607  -7.2497  -7.2340  -7.1990  -7.1897  -7.1882
    -7.1674  -7.1621  -7.1543  -7.1475  -4.8672  -4.5388  -3.9613  -3.1638
    -2.2351  -1.3432  -0.8544  -0.6647  -0.3492   0.0005   0.2421   0.3402
     2.3399   2.5660   2.6936   3.2865   3.5727   4.0604   4.1671   4.2137
     4.7525   4.9057   4.9108   4.9369   5.6005   5.6627   6.2301   6.3109
     6.7477   7.1430   7.2566   7.6802   7.7583   7.9056   7.9897   8.5937
     8.7915   8.8833   8.9181   9.0752   9.1370   9.3806   9.3888  10.0847
    10.1609  10.2322  10.4326  10.4351

          k = 0.0500-0.0500-0.2143 ( 36826 PWs)   bands (ev):

    -7.7731  -7.7730  -7.7180  -7.7154  -7.7050  -7.7038  -7.6961  -7.6919
    -7.6883  -7.6854  -7.6794  -7.6693  -7.6623  -7.6521  -7.6336  -7.6296
    -7.6162  -7.6143  -7.6129  -7.6015  -7.6009  -7.5865  -7.5766  -7.5670
    -7.5610  -7.5298  -7.5064  -7.4799  -7.4555  -7.4314  -7.4268  -7.4211
    -7.4163  -7.4017  -7.3887  -7.3826  -7.3514  -7.3385  -7.3197  -7.3180
    -7.3151  -7.3103  -7.2979  -7.2979  -7.2976  -7.2913  -7.2883  -7.2871
    -7.2812  -7.2725  -7.2596  -7.2472  -7.2441  -7.2198  -7.2077  -7.1920
    -7.1705  -7.1678  -7.1320  -7.1220  -4.8142  -4.4866  -3.9104  -3.1152
    -2.1904  -1.3048  -1.1179  -0.9034  -0.5454  -0.1335   0.1766   0.3202
     2.6227   2.6714   2.9672   3.3875   3.6109   3.6412   3.8628   4.4289
     4.9000   4.9162   4.9301   5.5189   5.6078   6.1830   6.2271   6.3460
     6.7348   6.7390   7.1615   7.3379   7.6054   7.7803   7.8651   8.4891
     8.9221   8.9330   9.0051   9.0737   9.1016   9.3887   9.7957   9.9147
    10.1017  10.3013  10.4342  10.7848

          k = 0.1000-0.1000-0.2143 ( 36807 PWs)   bands (ev):

    -7.7812  -7.7811  -7.7133  -7.7125  -7.7045  -7.6937  -7.6867  -7.6856
    -7.6758  -7.6746  -7.6689  -7.6598  -7.6581  -7.6409  -7.6397  -7.6313
    -7.6042  -7.6039  -7.5912  -7.5861  -7.5771  -7.5751  -7.5739  -7.5645
    -7.5591  -7.5136  -7.4991  -7.4543  -7.4498  -7.4449  -7.4367  -7.4329
    -7.4218  -7.4026  -7.3874  -7.3774  -7.3689  -7.3417  -7.3310  -7.3280
    -7.3277  -7.3221  -7.3213  -7.3179  -7.3143  -7.3051  -7.2957  -7.2912
    -7.2871  -7.2865  -7.2833  -7.2703  -7.2444  -7.2293  -7.2211  -7.1809
    -7.1806  -7.1622  -7.1160  -7.1055  -4.6549  -4.3296  -3.7577  -2.9696
    -2.0569  -1.7008  -1.4490  -1.1908  -1.0213  -0.4933  -0.0267   0.2440
     2.7898   3.4333   3.4503   3.4632   3.5974   3.6978   3.7146   3.9758
     4.8719   5.4490   5.8025   5.8128   5.9083   5.9437   6.0936   6.5303
     6.6852   6.9506   6.9970   7.0063   7.6152   7.6234   7.7864   7.9534
     8.5396   8.8968   9.0003   9.0105   9.0277   9.9287   9.9369  10.1092
    10.2189  10.4163  10.5760  10.6613

          k = 0.1500-0.1500-0.2143 ( 36783 PWs)   bands (ev):

    -7.7711  -7.7710  -7.7071  -7.7057  -7.6882  -7.6833  -7.6794  -7.6733
    -7.6729  -7.6608  -7.6584  -7.6513  -7.6507  -7.6329  -7.6325  -7.6207
    -7.6063  -7.5954  -7.5874  -7.5852  -7.5657  -7.5612  -7.5609  -7.5563
    -7.5403  -7.5125  -7.5111  -7.4695  -7.4455  -7.4425  -7.4417  -7.4301
    -7.4244  -7.4231  -7.3922  -7.3868  -7.3677  -7.3630  -7.3613  -7.3480
    -7.3338  -7.3335  -7.3319  -7.3273  -7.3194  -7.3177  -7.3037  -7.3027
    -7.3025  -7.2902  -7.2860  -7.2628  -7.2588  -7.2309  -7.2120  -7.1941
    -7.1720  -7.1695  -7.1166  -7.1092  -4.3889  -4.0678  -3.5036  -2.7282
    -2.3587  -2.0806  -1.8370  -1.6012  -1.0049  -0.9788  -0.3573   0.0811
     3.0570   3.3655   3.4742   3.7518   3.8390   4.0020   4.3423   4.4062
     4.6719   5.1667   5.3465   5.6032   6.1513   6.1857   6.5599   6.5829
     6.6755   7.1181   7.2353   7.2788   7.6616   7.7630   7.9343   8.1891
     8.2709   8.6345   8.9956   9.0708   9.1636   9.5600   9.7842  10.2210
    10.5570  10.5585  10.7457  10.7827

          k = 0.2000-0.2000-0.2143 ( 36771 PWs)   bands (ev):

    -7.7442  -7.7435  -7.6993  -7.6979  -7.6791  -7.6777  -7.6688  -7.6670
    -7.6603  -7.6554  -7.6429  -7.6423  -7.6345  -7.6264  -7.6172  -7.6120
    -7.6119  -7.5991  -7.5947  -7.5823  -7.5722  -7.5647  -7.5586  -7.5539
    -7.5459  -7.5401  -7.5057  -7.5015  -7.4711  -7.4522  -7.4487  -7.4161
    -7.4154  -7.4143  -7.4085  -7.4030  -7.3754  -7.3745  -7.3716  -7.3536
    -7.3430  -7.3362  -7.3304  -7.3255  -7.3205  -7.3203  -7.3129  -7.3036
    -7.2904  -7.2887  -7.2743  -7.2707  -7.2494  -7.2423  -7.2064  -7.1923
    -7.1900  -7.1641  -7.1312  -7.1300  -4.0180  -3.7031  -3.1504  -2.9881
    -2.6930  -2.3946  -2.1796  -1.5366  -1.4941  -0.7601  -0.7567  -0.1695
     3.3943   3.4818   3.5601   3.8707   3.9251   4.3003   4.3437   4.7564
     4.7958   5.0148   5.3157   5.4102   5.5992   5.8477   6.5200   6.5755
     7.1425   7.3036   7.5923   7.7378   7.8720   8.2168   8.2343   8.2633
     8.8827   9.0839   9.2053   9.2868   9.4041   9.5833   9.8071  10.0003
    10.0039  10.2293  10.2338  10.4370

          k =-0.2500 0.2500-0.2143 ( 36768 PWs)   bands (ev):

    -7.7105  -7.7105  -7.7064  -7.7064  -7.6872  -7.6872  -7.6738  -7.6738
    -7.6495  -7.6495  -7.6259  -7.6259  -7.6135  -7.6135  -7.6069  -7.6069
    -7.6043  -7.6043  -7.5975  -7.5975  -7.5741  -7.5741  -7.5711  -7.5711
    -7.5573  -7.5573  -7.5107  -7.5107  -7.4739  -7.4739  -7.4239  -7.4239
    -7.4111  -7.4111  -7.4086  -7.4086  -7.3707  -7.3707  -7.3614  -7.3614
    -7.3599  -7.3599  -7.3276  -7.3276  -7.3121  -7.3121  -7.3044  -7.3044
    -7.2862  -7.2862  -7.2778  -7.2778  -7.2285  -7.2285  -7.2202  -7.2202
    -7.1604  -7.1604  -7.1507  -7.1507  -3.5476  -3.5476  -3.2410  -3.2410
    -2.7046  -2.7046  -1.9774  -1.9774  -1.1689  -1.1689  -0.4661  -0.4661
     3.6283   3.6283   3.7289   3.7289   4.1582   4.1582   4.3091   4.3091
     5.0461   5.0461   5.3338   5.3338   5.8841   5.8841   6.3329   6.3329
     6.8885   6.8885   8.1566   8.1566   8.6352   8.6353   8.7868   8.7868
     8.8454   8.8454   9.2229   9.2230   9.4346   9.4346   9.8697   9.8698
     9.9002   9.9002  10.2218  10.2218

          k =-0.2000 0.2000-0.2143 ( 36771 PWs)   bands (ev):

    -7.7442  -7.7435  -7.6993  -7.6979  -7.6791  -7.6777  -7.6688  -7.6670
    -7.6603  -7.6554  -7.6429  -7.6423  -7.6345  -7.6264  -7.6172  -7.6120
    -7.6119  -7.5991  -7.5947  -7.5823  -7.5722  -7.5647  -7.5586  -7.5539
    -7.5459  -7.5401  -7.5057  -7.5015  -7.4711  -7.4522  -7.4487  -7.4161
    -7.4154  -7.4143  -7.4085  -7.4030  -7.3754  -7.3745  -7.3716  -7.3536
    -7.3430  -7.3362  -7.3304  -7.3255  -7.3205  -7.3203  -7.3129  -7.3036
    -7.2904  -7.2887  -7.2743  -7.2707  -7.2494  -7.2423  -7.2064  -7.1923
    -7.1900  -7.1641  -7.1312  -7.1300  -4.0180  -3.7031  -3.1504  -2.9881
    -2.6930  -2.3946  -2.1796  -1.5366  -1.4941  -0.7601  -0.7567  -0.1695
     3.3943   3.4818   3.5601   3.8707   3.9251   4.3003   4.3437   4.7564
     4.7958   5.0148   5.3157   5.4102   5.5992   5.8477   6.5200   6.5755
     7.1425   7.3036   7.5923   7.7378   7.8720   8.2168   8.2343   8.2633
     8.8827   9.0839   9.2053   9.2868   9.4041   9.5833   9.8071  10.0004
    10.0039  10.2293  10.2338  10.4369

          k =-0.1500 0.1500-0.2143 ( 36783 PWs)   bands (ev):

    -7.7711  -7.7710  -7.7071  -7.7057  -7.6882  -7.6833  -7.6794  -7.6733
    -7.6729  -7.6608  -7.6584  -7.6513  -7.6507  -7.6329  -7.6325  -7.6207
    -7.6063  -7.5954  -7.5874  -7.5852  -7.5657  -7.5612  -7.5609  -7.5563
    -7.5403  -7.5125  -7.5111  -7.4695  -7.4455  -7.4425  -7.4417  -7.4301
    -7.4244  -7.4231  -7.3922  -7.3868  -7.3677  -7.3630  -7.3613  -7.3480
    -7.3338  -7.3335  -7.3319  -7.3273  -7.3194  -7.3177  -7.3037  -7.3027
    -7.3025  -7.2902  -7.2860  -7.2628  -7.2588  -7.2309  -7.2120  -7.1941
    -7.1720  -7.1695  -7.1166  -7.1092  -4.3889  -4.0678  -3.5036  -2.7282
    -2.3587  -2.0806  -1.8370  -1.6012  -1.0049  -0.9788  -0.3573   0.0811
     3.0570   3.3655   3.4742   3.7518   3.8390   4.0020   4.3423   4.4062
     4.6719   5.1667   5.3465   5.6032   6.1513   6.1857   6.5599   6.5829
     6.6755   7.1181   7.2353   7.2788   7.6616   7.7630   7.9343   8.1891
     8.2709   8.6345   8.9956   9.0708   9.1636   9.5600   9.7843  10.2210
    10.5570  10.5585  10.7457  10.7827

          k =-0.1000 0.1000-0.2143 ( 36807 PWs)   bands (ev):

    -7.7812  -7.7811  -7.7133  -7.7125  -7.7045  -7.6937  -7.6867  -7.6856
    -7.6758  -7.6746  -7.6689  -7.6598  -7.6581  -7.6409  -7.6397  -7.6313
    -7.6042  -7.6039  -7.5912  -7.5861  -7.5771  -7.5751  -7.5739  -7.5645
    -7.5591  -7.5136  -7.4991  -7.4543  -7.4498  -7.4449  -7.4367  -7.4329
    -7.4218  -7.4026  -7.3874  -7.3774  -7.3689  -7.3417  -7.3310  -7.3280
    -7.3277  -7.3221  -7.3213  -7.3179  -7.3143  -7.3051  -7.2957  -7.2912
    -7.2871  -7.2865  -7.2833  -7.2703  -7.2444  -7.2293  -7.2211  -7.1809
    -7.1806  -7.1622  -7.1160  -7.1055  -4.6549  -4.3296  -3.7577  -2.9696
    -2.0569  -1.7008  -1.4490  -1.1908  -1.0213  -0.4933  -0.0267   0.2440
     2.7898   3.4333   3.4503   3.4632   3.5974   3.6978   3.7146   3.9758
     4.8719   5.4490   5.8025   5.8128   5.9083   5.9437   6.0936   6.5303
     6.6852   6.9506   6.9970   7.0063   7.6152   7.6234   7.7864   7.9534
     8.5396   8.8968   9.0003   9.0105   9.0277   9.9287   9.9369  10.1092
    10.2189  10.4163  10.5760  10.6613

          k =-0.0500 0.0500-0.2143 ( 36826 PWs)   bands (ev):

    -7.7731  -7.7730  -7.7180  -7.7154  -7.7050  -7.7038  -7.6961  -7.6919
    -7.6883  -7.6854  -7.6794  -7.6693  -7.6623  -7.6521  -7.6336  -7.6296
    -7.6162  -7.6143  -7.6129  -7.6015  -7.6009  -7.5865  -7.5766  -7.5670
    -7.5610  -7.5298  -7.5064  -7.4799  -7.4555  -7.4314  -7.4268  -7.4211
    -7.4163  -7.4017  -7.3887  -7.3826  -7.3514  -7.3385  -7.3197  -7.3180
    -7.3151  -7.3103  -7.2979  -7.2979  -7.2976  -7.2913  -7.2883  -7.2871
    -7.2812  -7.2725  -7.2596  -7.2472  -7.2441  -7.2198  -7.2077  -7.1920
    -7.1705  -7.1678  -7.1320  -7.1220  -4.8142  -4.4866  -3.9104  -3.1152
    -2.1904  -1.3048  -1.1179  -0.9034  -0.5454  -0.1335   0.1766   0.3202
     2.6227   2.6714   2.9672   3.3875   3.6109   3.6412   3.8628   4.4289
     4.9000   4.9162   4.9301   5.5189   5.6078   6.1830   6.2271   6.3460
     6.7348   6.7390   7.1615   7.3379   7.6054   7.7803   7.8651   8.4891
     8.9221   8.9330   9.0051   9.0737   9.1016   9.3887   9.7957   9.9148
    10.1017  10.3013  10.4342  10.6581

          k = 0.0000 0.0000-0.2857 ( 36775 PWs)   bands (ev):

    -7.7311  -7.7311  -7.7149  -7.7040  -7.7001  -7.6999  -7.6876  -7.6780
    -7.6663  -7.6653  -7.6562  -7.6480  -7.6451  -7.6399  -7.6144  -7.6123
    -7.6052  -7.6001  -7.5965  -7.5961  -7.5726  -7.5570  -7.5555  -7.5510
    -7.5386  -7.5107  -7.5014  -7.4690  -7.4583  -7.4415  -7.4398  -7.4224
    -7.4108  -7.4029  -7.3945  -7.3704  -7.3639  -7.3483  -7.3442  -7.3358
    -7.3280  -7.3170  -7.3031  -7.2999  -7.2993  -7.2983  -7.2924  -7.2832
    -7.2757  -7.2756  -7.2737  -7.2583  -7.2574  -7.2513  -7.2433  -7.2348
    -7.2200  -7.2187  -7.1605  -7.1591  -4.4938  -4.1659  -3.5958  -2.8223
    -1.9443  -1.1335  -0.7153  -0.5772  -0.4269  -0.3932  -0.3278  -0.2823
     2.8055   2.9861   3.1514   3.7264   3.7349   3.8054   3.8064   4.3284
     4.5028   4.5303   4.8403   5.2537   5.3495   5.5239   5.8552   6.1171
     6.3408   6.8839   6.9596   7.0601   7.5807   7.6100   7.8667   7.8750
     7.9645   8.0779   8.3895   8.5158   8.7643   9.0994   9.1685   9.2038
     9.3196   9.9317  10.1059  10.1788

          k = 0.0500-0.0500-0.2857 ( 36802 PWs)   bands (ev):

    -7.7573  -7.7570  -7.7153  -7.6997  -7.6904  -7.6879  -7.6867  -7.6773
    -7.6741  -7.6700  -7.6640  -7.6609  -7.6448  -7.6222  -7.6169  -7.6129
    -7.6092  -7.6044  -7.5888  -7.5777  -7.5694  -7.5610  -7.5519  -7.5493
    -7.5453  -7.5088  -7.5055  -7.4630  -7.4412  -7.4401  -7.4373  -7.4367
    -7.4069  -7.3978  -7.3927  -7.3851  -7.3638  -7.3402  -7.3345  -7.3318
    -7.3314  -7.3122  -7.3119  -7.3092  -7.3031  -7.2980  -7.2954  -7.2939
    -7.2843  -7.2790  -7.2736  -7.2679  -7.2606  -7.2602  -7.2479  -7.2385
    -7.2165  -7.1947  -7.1394  -7.1351  -4.4402  -4.1133  -3.5448  -2.7740
    -1.9010  -1.0989  -0.9297  -0.7595  -0.5168  -0.4090  -0.3374  -0.3354
     3.0342   3.0370   3.1994   3.2758   3.3521   3.7935   3.8115   4.4910
     4.6421   4.7370   4.8937   5.2337   5.6102   5.6136   5.9265   5.9448
     6.5229   6.7229   6.8094   6.8168   7.6162   7.6608   7.7384   7.9321
     8.1225   8.3894   8.4498   8.7468   8.7733   8.7845   9.1143   9.2704
     9.6610   9.8959  10.1481  10.3146

          k = 0.1000-0.1000-0.2857 ( 36787 PWs)   bands (ev):

    -7.7823  -7.7820  -7.7158  -7.7032  -7.7017  -7.6992  -7.6953  -7.6909
    -7.6744  -7.6655  -7.6593  -7.6547  -7.6523  -7.6336  -7.6170  -7.6138
    -7.6130  -7.6061  -7.5798  -7.5781  -7.5636  -7.5551  -7.5509  -7.5506
    -7.5254  -7.5185  -7.5056  -7.4575  -7.4557  -7.4373  -7.4365  -7.4113
    -7.4112  -7.4014  -7.3916  -7.3812  -7.3518  -7.3512  -7.3436  -7.3318
    -7.3285  -7.3182  -7.3177  -7.3148  -7.3132  -7.3083  -7.3034  -7.2924
    -7.2919  -7.2882  -7.2778  -7.2709  -7.2619  -7.2613  -7.2330  -7.2158
    -7.2035  -7.1671  -7.1128  -7.1074  -4.2794  -3.9555  -3.3920  -2.6298
    -1.7728  -1.4359  -1.2123  -0.9981  -0.8635  -0.5270  -0.3689  -0.3583
     2.8948   3.0007   3.1810   3.3124   3.4417   3.5892   3.7862   3.9440
     4.4241   5.0359   5.4413   5.5162   5.5784   5.8936   5.9048   6.1682
     6.3127   6.5503   6.9561   7.1053   7.1559   7.7171   7.9221   8.0405
     8.0988   8.2879   8.6510   8.9906   9.0914   9.1930   9.4040   9.6034
     9.9360  10.0194  10.2549  10.5393

          k = 0.1500-0.1500-0.2857 ( 36758 PWs)   bands (ev):

    -7.7899  -7.7896  -7.7154  -7.7071  -7.7070  -7.7011  -7.6995  -7.6978
    -7.6877  -7.6762  -7.6580  -7.6570  -7.6540  -7.6458  -7.6266  -7.6211
    -7.6208  -7.6204  -7.5936  -7.5842  -7.5708  -7.5677  -7.5558  -7.5347
    -7.5320  -7.5006  -7.4980  -7.4893  -7.4482  -7.4420  -7.4328  -7.4170
    -7.3976  -7.3930  -7.3926  -7.3849  -7.3593  -7.3517  -7.3401  -7.3319
    -7.3282  -7.3257  -7.3181  -7.3151  -7.3057  -7.3050  -7.3043  -7.3031
    -7.2911  -7.2764  -7.2674  -7.2635  -7.2593  -7.2471  -7.2001  -7.1968
    -7.1914  -7.1562  -7.1009  -7.0968  -4.0126  -3.6937  -3.1392  -2.3928
    -2.0400  -1.7774  -1.5660  -1.3440  -0.8460  -0.8420  -0.4782  -0.3257
     2.7583   2.7856   3.2605   3.3599   3.3893   3.6225   3.8480   4.0237
     4.2181   4.4066   5.1761   5.2295   5.5519   6.2340   6.3455   6.5181
     6.6646   6.7456   6.8566   7.1824   7.4251   7.8608   7.9027   8.2691
     8.4287   8.6455   9.1357   9.1803   9.4060   9.5798   9.6728  10.0555
    10.0891  10.1240  10.2779  10.3763

          k = 0.2000-0.2000-0.2857 ( 36754 PWs)   bands (ev):

    -7.7784  -7.7781  -7.7191  -7.7188  -7.7035  -7.7030  -7.6988  -7.6970
    -7.6936  -7.6796  -7.6670  -7.6612  -7.6566  -7.6523  -7.6362  -7.6328
    -7.6319  -7.6269  -7.6150  -7.6120  -7.5856  -7.5830  -7.5687  -7.5370
    -7.5339  -7.5169  -7.4999  -7.4662  -7.4614  -7.4340  -7.4314  -7.4098
    -7.4063  -7.3893  -7.3882  -7.3741  -7.3507  -7.3467  -7.3466  -7.3391
    -7.3291  -7.3254  -7.3128  -7.3104  -7.3012  -7.3010  -7.2995  -7.2894
    -7.2863  -7.2807  -7.2703  -7.2601  -7.2277  -7.2273  -7.2006  -7.1642
    -7.1633  -7.1600  -7.1067  -7.1052  -3.6436  -3.3319  -2.7913  -2.6378
    -2.3511  -2.0711  -1.8644  -1.2947  -1.2545  -0.6947  -0.6539  -0.3561
     2.7473   2.8539   3.2188   3.2599   3.3255   3.5040   3.8359   3.9435
     4.2463   4.6519   4.8010   5.1034   5.1163   5.6879   6.1362   6.2586
     6.8633   7.3610   7.6510   7.7562   8.1062   8.2393   8.2423   8.5812
     8.9476   9.2871   9.2983   9.4122   9.5387   9.5588   9.6777   9.8185
    10.0084  10.2222  10.3560  10.4910

          k =-0.2500 0.2500-0.2857 ( 36758 PWs)   bands (ev):

    -7.7510  -7.7510  -7.7509  -7.7509  -7.7030  -7.7030  -7.6978  -7.6978
    -7.6714  -7.6714  -7.6639  -7.6639  -7.6506  -7.6506  -7.6435  -7.6435
    -7.6372  -7.6372  -7.6312  -7.6312  -7.5994  -7.5994  -7.5605  -7.5605
    -7.5153  -7.5153  -7.4893  -7.4893  -7.4453  -7.4453  -7.4179  -7.4179
    -7.3989  -7.3989  -7.3761  -7.3761  -7.3424  -7.3424  -7.3401  -7.3401
    -7.3331  -7.3331  -7.3113  -7.3113  -7.2985  -7.2985  -7.2897  -7.2897
    -7.2817  -7.2817  -7.2673  -7.2673  -7.2127  -7.2127  -7.1896  -7.1896
    -7.1292  -7.1292  -7.1284  -7.1284  -3.1806  -3.1806  -2.8789  -2.8789
    -2.3594  -2.3594  -1.6811  -1.6810  -0.9877  -0.9877  -0.4747  -0.4747
     2.9398   2.9398   3.0529   3.0529   3.3926   3.3926   3.8656   3.8656
     4.5562   4.5562   4.7372   4.7372   5.5870   5.5870   5.7560   5.7560
     7.1226   7.1226   8.3536   8.3536   8.7479   8.7479   8.8151   8.8151
     8.9552   8.9552   9.2425   9.2425   9.3659   9.3659   9.9034   9.9034
    10.1350  10.1350  10.2320  10.2322

          k =-0.2000 0.2000-0.2857 ( 36754 PWs)   bands (ev):

    -7.7784  -7.7781  -7.7191  -7.7188  -7.7035  -7.7030  -7.6988  -7.6970
    -7.6936  -7.6796  -7.6670  -7.6612  -7.6566  -7.6523  -7.6362  -7.6328
    -7.6319  -7.6269  -7.6150  -7.6120  -7.5856  -7.5830  -7.5687  -7.5370
    -7.5339  -7.5169  -7.4999  -7.4662  -7.4614  -7.4340  -7.4314  -7.4098
    -7.4063  -7.3893  -7.3882  -7.3741  -7.3507  -7.3467  -7.3466  -7.3391
    -7.3291  -7.3254  -7.3128  -7.3104  -7.3012  -7.3010  -7.2995  -7.2894
    -7.2863  -7.2807  -7.2703  -7.2601  -7.2277  -7.2273  -7.2006  -7.1642
    -7.1633  -7.1600  -7.1067  -7.1052  -3.6436  -3.3319  -2.7913  -2.6378
    -2.3511  -2.0711  -1.8644  -1.2947  -1.2545  -0.6947  -0.6539  -0.3561
     2.7473   2.8539   3.2188   3.2599   3.3255   3.5040   3.8359   3.9435
     4.2463   4.6519   4.8010   5.1034   5.1163   5.6879   6.1362   6.2586
     6.8633   7.3610   7.6510   7.7562   8.1062   8.2393   8.2423   8.5812
     8.9476   9.2871   9.2983   9.4122   9.5387   9.5588   9.6777   9.8185
    10.0086  10.2222  10.3560  10.4911

          k =-0.1500 0.1500-0.2857 ( 36758 PWs)   bands (ev):

    -7.7899  -7.7896  -7.7154  -7.7071  -7.7070  -7.7011  -7.6995  -7.6978
    -7.6877  -7.6762  -7.6580  -7.6570  -7.6540  -7.6458  -7.6266  -7.6211
    -7.6208  -7.6204  -7.5936  -7.5842  -7.5708  -7.5677  -7.5558  -7.5347
    -7.5320  -7.5006  -7.4980  -7.4893  -7.4482  -7.4420  -7.4328  -7.4170
    -7.3976  -7.3930  -7.3926  -7.3849  -7.3593  -7.3517  -7.3401  -7.3319
    -7.3282  -7.3257  -7.3181  -7.3151  -7.3057  -7.3050  -7.3043  -7.3031
    -7.2911  -7.2764  -7.2674  -7.2635  -7.2593  -7.2471  -7.2001  -7.1968
    -7.1914  -7.1562  -7.1009  -7.0968  -4.0126  -3.6937  -3.1392  -2.3928
    -2.0400  -1.7774  -1.5660  -1.3440  -0.8460  -0.8420  -0.4782  -0.3257
     2.7583   2.7856   3.2605   3.3599   3.3893   3.6225   3.8480   4.0237
     4.2181   4.4066   5.1761   5.2295   5.5519   6.2340   6.3455   6.5181
     6.6646   6.7456   6.8566   7.1824   7.4251   7.8608   7.9027   8.2691
     8.4287   8.6455   9.1357   9.1803   9.4060   9.5798   9.6728  10.0555
    10.0891  10.1240  10.2779  10.3763

          k =-0.1000 0.1000-0.2857 ( 36787 PWs)   bands (ev):

    -7.7823  -7.7820  -7.7158  -7.7032  -7.7017  -7.6992  -7.6953  -7.6909
    -7.6744  -7.6655  -7.6593  -7.6547  -7.6523  -7.6336  -7.6170  -7.6138
    -7.6130  -7.6061  -7.5798  -7.5781  -7.5636  -7.5551  -7.5509  -7.5506
    -7.5254  -7.5185  -7.5056  -7.4575  -7.4557  -7.4373  -7.4365  -7.4113
    -7.4112  -7.4014  -7.3916  -7.3812  -7.3518  -7.3512  -7.3436  -7.3318
    -7.3285  -7.3182  -7.3177  -7.3148  -7.3132  -7.3083  -7.3034  -7.2924
    -7.2919  -7.2882  -7.2778  -7.2709  -7.2619  -7.2613  -7.2330  -7.2158
    -7.2035  -7.1671  -7.1128  -7.1074  -4.2794  -3.9555  -3.3920  -2.6298
    -1.7728  -1.4359  -1.2123  -0.9981  -0.8635  -0.5270  -0.3689  -0.3583
     2.8948   3.0007   3.1810   3.3124   3.4417   3.5892   3.7862   3.9440
     4.4241   5.0359   5.4413   5.5162   5.5784   5.8936   5.9048   6.1682
     6.3127   6.5503   6.9561   7.1053   7.1559   7.7171   7.9221   8.0405
     8.0988   8.2879   8.6510   8.9906   9.0914   9.1930   9.4040   9.6034
     9.9360  10.0194  10.2549  10.5393

          k =-0.0500 0.0500-0.2857 ( 36802 PWs)   bands (ev):

    -7.7573  -7.7570  -7.7153  -7.6997  -7.6904  -7.6879  -7.6867  -7.6773
    -7.6741  -7.6700  -7.6640  -7.6609  -7.6448  -7.6222  -7.6169  -7.6129
    -7.6092  -7.6044  -7.5888  -7.5777  -7.5694  -7.5610  -7.5519  -7.5493
    -7.5453  -7.5088  -7.5055  -7.4630  -7.4412  -7.4401  -7.4373  -7.4367
    -7.4069  -7.3978  -7.3927  -7.3851  -7.3638  -7.3402  -7.3345  -7.3318
    -7.3314  -7.3122  -7.3119  -7.3092  -7.3031  -7.2980  -7.2954  -7.2939
    -7.2843  -7.2790  -7.2736  -7.2679  -7.2606  -7.2602  -7.2479  -7.2385
    -7.2165  -7.1947  -7.1394  -7.1351  -4.4402  -4.1133  -3.5448  -2.7740
    -1.9010  -1.0989  -0.9297  -0.7595  -0.5168  -0.4090  -0.3374  -0.3354
     3.0342   3.0370   3.1994   3.2758   3.3521   3.7935   3.8115   4.4910
     4.6421   4.7370   4.8937   5.2337   5.6102   5.6136   5.9265   5.9448
     6.5229   6.7229   6.8094   6.8168   7.6162   7.6608   7.7384   7.9321
     8.1225   8.3894   8.4498   8.7468   8.7733   8.7845   9.1143   9.2704
     9.6610   9.8959  10.1481  10.3147

          k = 0.0000 0.0000-0.3571 ( 36737 PWs)   bands (ev):

    -7.7094  -7.6994  -7.6994  -7.6961  -7.6927  -7.6927  -7.6759  -7.6642
    -7.6554  -7.6539  -7.6406  -7.6356  -7.6259  -7.6181  -7.5913  -7.5901
    -7.5814  -7.5742  -7.5706  -7.5476  -7.5474  -7.5423  -7.5377  -7.5186
    -7.5108  -7.4967  -7.4639  -7.4554  -7.4553  -7.4494  -7.4413  -7.4295
    -7.4276  -7.4224  -7.4065  -7.3948  -7.3904  -7.3730  -7.3573  -7.3572
    -7.3415  -7.3313  -7.3270  -7.3151  -7.3138  -7.3098  -7.3006  -7.2981
    -7.2937  -7.2907  -7.2785  -7.2767  -7.2669  -7.2664  -7.2663  -7.2618
    -7.2603  -7.2456  -7.1745  -7.1719  -4.0158  -3.6919  -3.1363  -2.3998
    -1.5957  -1.2366  -1.0326  -0.8985  -0.7599  -0.5940  -0.5562  -0.5409
     3.3832   3.4745   3.4792   3.5668   3.7203   3.9502   4.0657   4.2933
     4.3281   4.5204   4.9383   5.0541   5.1690   5.4512   5.8696   5.9024
     6.0532   6.6031   6.6831   6.8523   6.9044   7.0001   7.1714   7.2827
     7.4301   8.1263   8.1528   8.1937   8.2165   8.4492   8.6415   8.9958
     9.4071   9.6024   9.7231   9.8261

          k = 0.0500-0.0500-0.3571 ( 36767 PWs)   bands (ev):

    -7.7355  -7.7354  -7.7109  -7.7026  -7.6853  -7.6840  -7.6782  -7.6636
    -7.6636  -7.6630  -7.6387  -7.6383  -7.6373  -7.6229  -7.6050  -7.5921
    -7.5856  -7.5820  -7.5700  -7.5511  -7.5495  -7.5461  -7.5417  -7.5219
    -7.5102  -7.4981  -7.4938  -7.4574  -7.4557  -7.4519  -7.4342  -7.4148
    -7.4104  -7.4028  -7.4000  -7.3902  -7.3752  -7.3715  -7.3682  -7.3458
    -7.3408  -7.3257  -7.3255  -7.3177  -7.3096  -7.3087  -7.3052  -7.3002
    -7.2945  -7.2897  -7.2797  -7.2721  -7.2716  -7.2710  -7.2605  -7.2575
    -7.2457  -7.2159  -7.1534  -7.1523  -3.9619  -3.6392  -3.0855  -2.3528
    -1.5565  -1.1976  -1.0040  -0.8732  -0.7607  -0.7396  -0.6527  -0.6182
     3.0573   3.1355   3.3973   3.4297   3.4963   3.8559   3.9774   4.3180
     4.5798   4.8367   4.8842   4.9806   5.1457   5.5185   5.6262   5.6796
     6.4322   6.6631   6.7518   6.7963   7.1529   7.2181   7.3533   7.6036
     7.6550   7.8085   8.2022   8.3217   8.3290   8.5178   8.6239   9.3151
     9.5298   9.6579   9.6726  10.0100

          k = 0.1000-0.1000-0.3571 ( 36767 PWs)   bands (ev):

    -7.7738  -7.7736  -7.7150  -7.7102  -7.7048  -7.7009  -7.6926  -7.6872
    -7.6804  -7.6716  -7.6506  -7.6468  -7.6454  -7.6372  -7.6260  -7.6159
    -7.6140  -7.6057  -7.5781  -7.5731  -7.5723  -7.5623  -7.5320  -7.5300
    -7.5083  -7.5003  -7.4789  -7.4675  -7.4448  -7.4432  -7.4413  -7.4076
    -7.3926  -7.3915  -7.3875  -7.3866  -7.3635  -7.3546  -7.3519  -7.3286
    -7.3252  -7.3191  -7.3167  -7.3157  -7.3100  -7.2986  -7.2977  -7.2976
    -7.2905  -7.2903  -7.2778  -7.2756  -7.2666  -7.2639  -7.2252  -7.2235
    -7.2208  -7.1783  -7.1193  -7.1192  -3.8010  -3.4817  -2.9342  -2.2137
    -1.4431  -1.1403  -1.0888  -0.9810  -0.9311  -0.8044  -0.7911  -0.7672
     2.6202   2.6435   3.1169   3.2742   3.4400   3.5518   3.5829   3.9895
     4.1794   4.1956   5.0185   5.2356   5.6044   5.7098   5.9671   6.0661
     6.5604   6.5892   6.7014   6.8819   7.0856   7.4368   7.9007   8.0006
     8.2187   8.3072   8.3713   8.5991   8.6365   8.9210   9.2136   9.5183
     9.6210   9.6259   9.7837   9.9400

          k = 0.1500-0.1500-0.3571 ( 36735 PWs)   bands (ev):

    -7.7975  -7.7972  -7.7249  -7.7212  -7.7208  -7.7197  -7.7101  -7.7076
    -7.7025  -7.6913  -7.6725  -7.6714  -7.6585  -7.6524  -7.6495  -7.6460
    -7.6251  -7.6229  -7.6103  -7.6092  -7.5948  -7.5882  -7.5665  -7.5267
    -7.4993  -7.4948  -7.4621  -7.4580  -7.4382  -7.4372  -7.4337  -7.4022
    -7.4022  -7.3739  -7.3690  -7.3638  -7.3455  -7.3387  -7.3367  -7.3242
    -7.3211  -7.3178  -7.3111  -7.3072  -7.2963  -7.2923  -7.2898  -7.2863
    -7.2860  -7.2830  -7.2719  -7.2712  -7.2412  -7.2359  -7.1990  -7.1784
    -7.1770  -7.1538  -7.0964  -7.0960  -3.5358  -3.2224  -2.6866  -1.9898
    -1.6623  -1.4368  -1.2704  -1.1095  -0.9349  -0.8545  -0.8422  -0.7165
     2.2913   2.4168   2.8227   3.0422   3.1009   3.1301   3.5600   3.5950
     3.8088   3.9184   4.4814   4.9757   5.6380   6.0232   6.0873   6.6285
     6.7198   6.8558   6.9087   7.1500   7.4320   7.9885   8.1134   8.1622
     8.6655   8.9043   9.1134   9.3010   9.3015   9.4710   9.4929   9.5920
     9.6232   9.6588  10.1429  10.1514

          k = 0.2000-0.2000-0.3571 ( 36730 PWs)   bands (ev):

    -7.8018  -7.8013  -7.7556  -7.7537  -7.7281  -7.7216  -7.7212  -7.7123
    -7.7066  -7.7033  -7.6869  -7.6830  -7.6749  -7.6740  -7.6676  -7.6633
    -7.6525  -7.6454  -7.6349  -7.6305  -7.6186  -7.6061  -7.5824  -7.5402
    -7.4864  -7.4772  -7.4597  -7.4452  -7.4443  -7.4284  -7.4261  -7.4099
    -7.3882  -7.3614  -7.3573  -7.3448  -7.3325  -7.3296  -7.3281  -7.3230
    -7.3170  -7.3169  -7.3065  -7.3018  -7.2924  -7.2893  -7.2850  -7.2827
    -7.2822  -7.2690  -7.2665  -7.2645  -7.2129  -7.1947  -7.1888  -7.1483
    -7.1358  -7.1338  -7.0916  -7.0901  -3.1729  -2.8686  -2.3522  -2.2096
    -1.9430  -1.6980  -1.5164  -1.0701  -1.0695  -0.8172  -0.7701  -0.6536
     2.2157   2.3091   2.6075   2.7382   2.7564   3.0168   3.0707   3.5039
     3.5244   4.1961   4.4281   4.5539   5.4134   5.5202   5.7581   6.4943
     7.1223   7.5081   7.5218   7.9976   8.0280   8.2395   8.4381   8.7620
     8.9865   9.0104   9.2624   9.3088   9.6149   9.6406   9.8399  10.0752
    10.1604  10.1736  10.3413  10.4953

          k =-0.2500 0.2500-0.3571 ( 36724 PWs)   bands (ev):

    -7.7864  -7.7864  -7.7855  -7.7855  -7.7259  -7.7259  -7.7124  -7.7124
    -7.7030  -7.7030  -7.6923  -7.6923  -7.6828  -7.6828  -7.6735  -7.6735
    -7.6646  -7.6646  -7.6442  -7.6442  -7.6201  -7.6201  -7.5617  -7.5617
[...]
    -7.4860  -7.4827  -7.4780  -7.4637  -7.4617  -7.4517  -7.4355  -7.4188
    -7.4128  -7.4117  -7.4081  -7.4068  -7.3879  -7.3820  -7.3800  -7.3544
    -7.3385  -7.3344  -7.3290  -7.3260  -7.3236  -7.3150  -7.3147  -7.3113
    -7.2998  -7.2962  -7.2935  -7.2778  -7.2758  -7.2741  -7.2608  -7.2425
    -7.2329  -7.2308  -7.1758  -7.1722  -3.3854  -3.0721  -2.5444  -1.9828
    -1.8722  -1.7222  -1.3233  -1.1928  -0.9238  -0.6806  -0.6753  -0.5958
     3.0691   3.1106   3.5550   3.5930   3.6237   3.6412   4.1561   4.2475
     4.3803   4.9807   4.9820   5.0285   5.3465   5.3853   5.5047   6.0070
     6.0191   6.2965   6.3119   6.5101   6.8768   6.9639   6.9661   7.1276
     7.4812   7.7400   7.8917   8.1880   8.4319   8.5625   8.6009   8.8945
     9.4442   9.4664   9.5680   9.7814

          k = 0.1000-0.1000-0.4286 ( 36717 PWs)   bands (ev):

    -7.7573  -7.7555  -7.7195  -7.7176  -7.7091  -7.7010  -7.6996  -7.6916
    -7.6791  -7.6612  -7.6590  -7.6435  -7.6427  -7.6403  -7.6200  -7.6187
    -7.6139  -7.6082  -7.5939  -7.5846  -7.5764  -7.5733  -7.5581  -7.5390
    -7.4732  -7.4688  -7.4609  -7.4589  -7.4523  -7.4435  -7.4362  -7.4096
    -7.3894  -7.3866  -7.3855  -7.3747  -7.3709  -7.3544  -7.3469  -7.3364
    -7.3286  -7.3185  -7.3106  -7.3103  -7.3081  -7.3041  -7.2970  -7.2870
    -7.2865  -7.2828  -7.2807  -7.2784  -7.2628  -7.2621  -7.2396  -7.1999
    -7.1973  -7.1955  -7.1391  -7.1360  -3.2263  -2.9174  -2.3990  -1.8431
    -1.7482  -1.5974  -1.2388  -1.1174  -0.9392  -0.8583  -0.8363  -0.6755
     2.5057   2.6245   3.0098   3.0342   3.1465   3.2668   3.5175   3.7437
     3.9562   4.6139   4.6567   4.9241   5.7968   5.8649   5.8668   6.0161
     6.2336   6.4664   6.8861   7.0602   7.1883   7.4643   7.5794   7.6892
     7.9858   8.1843   8.3251   8.5027   8.7662   8.9961   9.0489   9.0638
     9.3258   9.4586   9.7257   9.9518

          k = 0.1500-0.1500-0.4286 ( 36725 PWs)   bands (ev):

    -7.7926  -7.7923  -7.7510  -7.7457  -7.7272  -7.7270  -7.7220  -7.7055
    -7.7044  -7.6923  -7.6826  -7.6803  -7.6759  -7.6619  -7.6572  -7.6545
    -7.6531  -7.6363  -7.6348  -7.6137  -7.6072  -7.5924  -7.5877  -7.5467
    -7.4602  -7.4566  -7.4534  -7.4411  -7.4390  -7.4335  -7.4280  -7.4127
    -7.3686  -7.3624  -7.3558  -7.3449  -7.3430  -7.3372  -7.3297  -7.3163
    -7.3114  -7.3069  -7.3047  -7.3029  -7.2978  -7.2897  -7.2872  -7.2850
    -7.2830  -7.2777  -7.2726  -7.2696  -7.2199  -7.2168  -7.2047  -7.1644
    -7.1496  -7.1489  -7.1061  -7.1031  -2.9669  -2.6660  -2.1660  -1.6261
    -1.5598  -1.4129  -1.2641  -1.1595  -1.1008  -1.0275  -1.0149  -0.7199
     2.1206   2.2177   2.5211   2.6297   2.6766   2.9553   3.0126   3.3579
     3.3947   3.9235   4.2620   4.7485   5.3208   5.9122   6.2565   6.4414
     6.9755   7.0068   7.1745   7.5760   7.7928   7.8504   8.0482   8.4283
     8.5665   8.6045   8.8380   9.0434   9.1320   9.2223   9.3157   9.3954
     9.6315   9.8862   9.9678  10.1284

          k = 0.2000-0.2000-0.4286 ( 36708 PWs)   bands (ev):

    -7.8111  -7.8109  -7.7868  -7.7851  -7.7380  -7.7372  -7.7363  -7.7150
    -7.7140  -7.7099  -7.7056  -7.7011  -7.6958  -7.6956  -7.6949  -7.6744
    -7.6669  -7.6659  -7.6600  -7.6502  -7.6152  -7.6070  -7.5845  -7.5609
    -7.4473  -7.4472  -7.4381  -7.4328  -7.4310  -7.4301  -7.4231  -7.4151
    -7.3539  -7.3410  -7.3384  -7.3294  -7.3288  -7.3267  -7.3208  -7.3128
    -7.3061  -7.3041  -7.2991  -7.2967  -7.2888  -7.2884  -7.2873  -7.2860
    -7.2668  -7.2608  -7.2586  -7.2584  -7.1839  -7.1787  -7.1775  -7.1470
    -7.1108  -7.1101  -7.0884  -7.0854  -2.6173  -2.3303  -1.8644  -1.7295
    -1.5132  -1.3569  -1.3433  -1.2443  -1.1818  -1.0873  -0.9814  -0.8524
     1.9252   2.0062   2.1760   2.1807   2.5397   2.7180   2.7996   2.8026
     3.3851   3.5700   3.6489   4.4949   5.2145   6.0700   6.1687   6.4943
     7.2231   7.3812   7.4220   7.6849   8.2637   8.3477   8.6646   8.7581
     8.7615   9.2257   9.3645   9.4427   9.6662   9.7831   9.7854   9.9328
    10.2396  10.2474  10.2629  10.3186

          k =-0.2500 0.2500-0.4286 ( 36726 PWs)   bands (ev):

    -7.8090  -7.8090  -7.8083  -7.8083  -7.7420  -7.7420  -7.7308  -7.7308
    -7.7157  -7.7157  -7.7100  -7.7100  -7.7042  -7.7042  -7.6986  -7.6986
    -7.6788  -7.6788  -7.6591  -7.6591  -7.6148  -7.6148  -7.5748  -7.5748
    -7.4381  -7.4381  -7.4370  -7.4370  -7.4293  -7.4293  -7.4171  -7.4171
    -7.3420  -7.3420  -7.3281  -7.3281  -7.3225  -7.3225  -7.3154  -7.3154
    -7.3031  -7.3031  -7.2998  -7.2998  -7.2880  -7.2880  -7.2870  -7.2870
    -7.2552  -7.2552  -7.2512  -7.2512  -7.1710  -7.1710  -7.1516  -7.1516
    -7.0898  -7.0898  -7.0876  -7.0876  -2.1953  -2.1953  -1.9328  -1.9328
    -1.5307  -1.5307  -1.1668  -1.1668  -1.0748  -1.0748  -1.0385  -1.0385
     1.9082   1.9082   2.0571   2.0571   2.4499   2.4499   2.8343   2.8343
     3.2260   3.2260   3.9679   3.9679   5.5997   5.5997   6.4529   6.4529
     7.2963   7.2963   7.5500   7.5500   8.5004   8.5004   8.7524   8.7524
     9.7236   9.7236   9.7554   9.7554   9.8197   9.8197  10.1912  10.1912
    10.1995  10.1995  10.3969  10.3969

          k =-0.2000 0.2000-0.4286 ( 36708 PWs)   bands (ev):

    -7.8111  -7.8109  -7.7868  -7.7851  -7.7380  -7.7372  -7.7363  -7.7150
    -7.7140  -7.7099  -7.7056  -7.7011  -7.6958  -7.6956  -7.6949  -7.6744
    -7.6669  -7.6659  -7.6600  -7.6502  -7.6152  -7.6070  -7.5845  -7.5609
    -7.4473  -7.4472  -7.4381  -7.4328  -7.4310  -7.4301  -7.4231  -7.4151
    -7.3539  -7.3410  -7.3384  -7.3294  -7.3288  -7.3267  -7.3208  -7.3128
    -7.3061  -7.3041  -7.2991  -7.2967  -7.2888  -7.2884  -7.2873  -7.2860
    -7.2668  -7.2608  -7.2586  -7.2584  -7.1839  -7.1787  -7.1775  -7.1470
    -7.1108  -7.1101  -7.0884  -7.0854  -2.6173  -2.3303  -1.8644  -1.7295
    -1.5132  -1.3569  -1.3433  -1.2443  -1.1818  -1.0873  -0.9814  -0.8524
     1.9252   2.0062   2.1760   2.1807   2.5397   2.7180   2.7996   2.8026
     3.3851   3.5700   3.6489   4.4949   5.2145   6.0700   6.1687   6.4943
     7.2231   7.3812   7.4220   7.6849   8.2637   8.3477   8.6646   8.7581
     8.7615   9.2257   9.3645   9.4427   9.6662   9.7831   9.7854   9.9328
    10.2393  10.2472  10.2627  10.3187

          k =-0.1500 0.1500-0.4286 ( 36725 PWs)   bands (ev):

    -7.7926  -7.7923  -7.7510  -7.7457  -7.7272  -7.7270  -7.7220  -7.7055
    -7.7044  -7.6923  -7.6826  -7.6803  -7.6759  -7.6619  -7.6572  -7.6545
    -7.6531  -7.6363  -7.6348  -7.6137  -7.6072  -7.5924  -7.5877  -7.5467
    -7.4602  -7.4566  -7.4534  -7.4411  -7.4390  -7.4335  -7.4280  -7.4127
    -7.3686  -7.3624  -7.3558  -7.3449  -7.3430  -7.3372  -7.3297  -7.3163
    -7.3114  -7.3069  -7.3047  -7.3029  -7.2978  -7.2897  -7.2872  -7.2850
    -7.2830  -7.2777  -7.2726  -7.2696  -7.2199  -7.2168  -7.2047  -7.1644
    -7.1496  -7.1489  -7.1061  -7.1031  -2.9669  -2.6660  -2.1660  -1.6261
    -1.5598  -1.4129  -1.2641  -1.1595  -1.1008  -1.0275  -1.0149  -0.7199
     2.1206   2.2177   2.5211   2.6297   2.6766   2.9553   3.0126   3.3579
     3.3947   3.9235   4.2620   4.7485   5.3208   5.9122   6.2565   6.4414
     6.9755   7.0068   7.1745   7.5760   7.7928   7.8504   8.0482   8.4283
     8.5665   8.6045   8.8380   9.0434   9.1320   9.2223   9.3157   9.3954
     9.6315   9.8862   9.9679  10.1283

          k =-0.1000 0.1000-0.4286 ( 36717 PWs)   bands (ev):

    -7.7573  -7.7555  -7.7195  -7.7176  -7.7091  -7.7010  -7.6996  -7.6916
    -7.6791  -7.6612  -7.6590  -7.6435  -7.6427  -7.6403  -7.6200  -7.6187
    -7.6139  -7.6082  -7.5939  -7.5846  -7.5764  -7.5733  -7.5581  -7.5390
    -7.4732  -7.4688  -7.4609  -7.4589  -7.4523  -7.4435  -7.4362  -7.4096
    -7.3894  -7.3866  -7.3855  -7.3747  -7.3709  -7.3544  -7.3469  -7.3364
    -7.3286  -7.3185  -7.3106  -7.3103  -7.3081  -7.3041  -7.2970  -7.2870
    -7.2865  -7.2828  -7.2807  -7.2784  -7.2628  -7.2621  -7.2396  -7.1999
    -7.1973  -7.1955  -7.1391  -7.1360  -3.2263  -2.9174  -2.3990  -1.8431
    -1.7482  -1.5974  -1.2388  -1.1174  -0.9392  -0.8583  -0.8363  -0.6755
     2.5057   2.6245   3.0098   3.0342   3.1465   3.2668   3.5175   3.7437
     3.9562   4.6139   4.6567   4.9241   5.7968   5.8649   5.8668   6.0161
     6.2336   6.4664   6.8861   7.0602   7.1883   7.4643   7.5795   7.6892
     7.9858   8.1843   8.3251   8.5027   8.7662   8.9961   9.0489   9.0638
     9.3258   9.4587   9.7257   9.9518

          k =-0.0500 0.0500-0.4286 ( 36700 PWs)   bands (ev):

    -7.7186  -7.7106  -7.7086  -7.7051  -7.6928  -7.6779  -7.6775  -7.6685
    -7.6501  -7.6471  -7.6196  -7.6180  -7.6071  -7.6040  -7.5962  -7.5881
    -7.5762  -7.5685  -7.5647  -7.5583  -7.5485  -7.5418  -7.5284  -7.5205
    -7.4860  -7.4827  -7.4780  -7.4637  -7.4617  -7.4517  -7.4355  -7.4188
    -7.4128  -7.4117  -7.4081  -7.4068  -7.3879  -7.3820  -7.3800  -7.3544
    -7.3385  -7.3344  -7.3290  -7.3260  -7.3236  -7.3150  -7.3147  -7.3113
    -7.2998  -7.2962  -7.2935  -7.2778  -7.2758  -7.2741  -7.2608  -7.2425
    -7.2329  -7.2308  -7.1758  -7.1722  -3.3854  -3.0721  -2.5444  -1.9828
    -1.8722  -1.7222  -1.3233  -1.1928  -0.9238  -0.6806  -0.6753  -0.5958
     3.0691   3.1106   3.5550   3.5930   3.6237   3.6412   4.1561   4.2475
     4.3803   4.9807   4.9820   5.0285   5.3465   5.3853   5.5047   6.0070
     6.0191   6.2965   6.3119   6.5101   6.8768   6.9639   6.9661   7.1276
     7.4812   7.7400   7.8917   8.1880   8.4319   8.5625   8.6009   8.8945
     9.4442   9.4665   9.5684   9.7816

          k =-0.0000-0.0000 0.5000 ( 36666 PWs)   bands (ev):

    -7.7017  -7.7017  -7.7014  -7.7014  -7.6663  -7.6663  -7.6655  -7.6655
    -7.6046  -7.6046  -7.6046  -7.6046  -7.5699  -7.5699  -7.5665  -7.5665
    -7.5529  -7.5529  -7.5527  -7.5527  -7.5272  -7.5272  -7.5222  -7.5222
    -7.5109  -7.5109  -7.4588  -7.4588  -7.4508  -7.4508  -7.4440  -7.4440
    -7.4330  -7.4330  -7.4231  -7.4231  -7.3927  -7.3927  -7.3705  -7.3705
    -7.3541  -7.3541  -7.3428  -7.3428  -7.3391  -7.3391  -7.3374  -7.3374
    -7.3031  -7.3031  -7.2914  -7.2914  -7.2779  -7.2779  -7.2715  -7.2715
    -7.2162  -7.2162  -7.2133  -7.2133  -2.7724  -2.7724  -2.4751  -2.4751
    -1.9879  -1.9879  -1.4033  -1.4033  -0.8761  -0.8761  -0.5343  -0.5343
     3.5839   3.5839   3.6584   3.6584   4.1842   4.1842   4.3753   4.3753
     4.8319   4.8319   5.1505   5.1505   5.2092   5.2092   5.4285   5.4285
     5.7002   5.7002   6.4443   6.4443   6.5266   6.5266   6.6123   6.6123
     7.2942   7.2942   7.8806   7.8806   8.1042   8.1042   8.8199   8.8199
     9.3024   9.3024   9.4510   9.4511

          k = 0.0500-0.0500 0.5000 ( 36704 PWs)   bands (ev):

    -7.7100  -7.7100  -7.7055  -7.7055  -7.6843  -7.6843  -7.6727  -7.6727
    -7.6353  -7.6353  -7.6229  -7.6229  -7.5867  -7.5867  -7.5822  -7.5822
    -7.5698  -7.5698  -7.5620  -7.5620  -7.5446  -7.5446  -7.5423  -7.5423
    -7.4931  -7.4931  -7.4566  -7.4566  -7.4362  -7.4362  -7.4344  -7.4344
    -7.4315  -7.4315  -7.4130  -7.4130  -7.3914  -7.3914  -7.3552  -7.3552
    -7.3375  -7.3375  -7.3369  -7.3369  -7.3162  -7.3162  -7.3158  -7.3158
    -7.3021  -7.3021  -7.2783  -7.2783  -7.2758  -7.2758  -7.2707  -7.2707
    -7.2025  -7.2025  -7.1991  -7.1991  -2.7205  -2.7205  -2.4253  -2.4253
    -1.9433  -1.9433  -1.3719  -1.3719  -0.8733  -0.8733  -0.5690  -0.5690
     3.2417   3.2417   3.3264   3.3264   3.7346   3.7346   4.0472   4.0472
     4.9293   4.9293   5.1078   5.1078   5.4628   5.4628   5.6326   5.6326
     6.1443   6.1443   6.1760   6.1760   6.5943   6.5943   6.9277   6.9277
     7.7780   7.7780   7.8793   7.8793   8.6838   8.6838   8.6883   8.6883
     9.2790   9.2790   9.4925   9.4925

          k = 0.1000-0.1000 0.5000 ( 36690 PWs)   bands (ev):

    -7.7374  -7.7374  -7.7288  -7.7288  -7.7160  -7.7160  -7.6914  -7.6914
    -7.6742  -7.6742  -7.6478  -7.6478  -7.6304  -7.6304  -7.6293  -7.6293
    -7.6123  -7.6123  -7.5923  -7.5923  -7.5710  -7.5710  -7.5665  -7.5665
    -7.4678  -7.4678  -7.4612  -7.4612  -7.4302  -7.4302  -7.4279  -7.4279
    -7.3864  -7.3864  -7.3701  -7.3701  -7.3663  -7.3663  -7.3444  -7.3444
    -7.3222  -7.3222  -7.3178  -7.3178  -7.3004  -7.3004  -7.2944  -7.2944
    -7.2792  -7.2792  -7.2719  -7.2719  -7.2627  -7.2627  -7.2315  -7.2315
    -7.1658  -7.1658  -7.1623  -7.1623  -2.5672  -2.5672  -2.2791  -2.2791
    -1.8147  -1.8147  -1.2885  -1.2885  -0.8837  -0.8837  -0.6880  -0.6880
     2.6948   2.6948   2.7402   2.7402   3.2179   3.2179   3.3951   3.3951
     4.2713   4.2713   5.0553   5.0553   5.4614   5.4614   6.0094   6.0094
     6.5629   6.5629   6.9657   6.9657   7.1266   7.1266   7.8167   7.8167
     8.0418   8.0418   8.1186   8.1186   8.8330   8.8330   9.3429   9.3429
     9.3710   9.3711   9.6923   9.6923

          k = 0.1500-0.1500 0.5000 ( 36716 PWs)   bands (ev):

    -7.7764  -7.7764  -7.7741  -7.7740  -7.7295  -7.7295  -7.7132  -7.7132
    -7.6988  -7.6988  -7.6771  -7.6771  -7.6766  -7.6766  -7.6646  -7.6646
    -7.6478  -7.6478  -7.6452  -7.6452  -7.5866  -7.5866  -7.5789  -7.5789
    -7.4482  -7.4482  -7.4466  -7.4466  -7.4267  -7.4267  -7.4225  -7.4225
    -7.3603  -7.3603  -7.3378  -7.3378  -7.3325  -7.3325  -7.3317  -7.3317
    -7.3070  -7.3070  -7.3000  -7.3000  -7.2962  -7.2962  -7.2877  -7.2877
    -7.2759  -7.2759  -7.2677  -7.2677  -7.2121  -7.2121  -7.1869  -7.1869
    -7.1245  -7.1245  -7.1216  -7.1216  -2.3212  -2.3212  -2.0473  -2.0473
    -1.6204  -1.6204  -1.1903  -1.1903  -0.9576  -0.9576  -0.9155  -0.9155
     2.2066   2.2066   2.2844   2.2844   2.7775   2.7775   2.9496   2.9496
     3.5986   3.5986   4.4695   4.4695   5.5416   5.5416   6.3351   6.3351
     7.2725   7.2725   7.4731   7.4731   7.9676   7.9676   8.1781   8.1781
     8.3293   8.3293   8.6401   8.6401   9.3325   9.3325   9.4422   9.4422
     9.7691   9.7691   9.9162   9.9162

          k = 0.2000-0.2000 0.5000 ( 36678 PWs)   bands (ev):

    -7.8060  -7.8060  -7.8053  -7.8053  -7.7414  -7.7414  -7.7322  -7.7322
    -7.7151  -7.7151  -7.7046  -7.7046  -7.7044  -7.7044  -7.6914  -7.6914
    -7.6721  -7.6721  -7.6678  -7.6678  -7.5944  -7.5944  -7.5892  -7.5892
    -7.4349  -7.4349  -7.4336  -7.4336  -7.4237  -7.4237  -7.4202  -7.4202
    -7.3386  -7.3386  -7.3274  -7.3274  -7.3225  -7.3225  -7.3178  -7.3178
    -7.3024  -7.3024  -7.2930  -7.2930  -7.2894  -7.2894  -7.2891  -7.2891
    -7.2568  -7.2568  -7.2563  -7.2563  -7.1737  -7.1737  -7.1598  -7.1598
    -7.0946  -7.0946  -7.0929  -7.0929  -1.9985  -1.9985  -1.7520  -1.7520
    -1.4002  -1.4002  -1.2499  -1.2499  -1.1408  -1.1408  -1.1369  -1.1369
     1.8740   1.8740   2.0263   2.0263   2.4220   2.4220   2.8161   2.8161
     3.1908   3.1908   3.8527   3.8527   5.8461   5.8461   6.4672   6.4672
     7.1821   7.1821   7.4808   7.4808   8.4287   8.4287   8.6590   8.6590
     9.1037   9.1037   9.4492   9.4492   9.7493   9.7493   9.8204   9.8204
    10.1076  10.1076  10.3133  10.3133

          k =-0.2500 0.2500 0.5000 ( 36688 PWs)   bands (ev):

    -7.8165  -7.8165  -7.8165  -7.8165  -7.7439  -7.7439  -7.7439  -7.7439
    -7.7160  -7.7160  -7.7159  -7.7159  -7.7103  -7.7103  -7.7103  -7.7103
    -7.6754  -7.6754  -7.6753  -7.6753  -7.5950  -7.5950  -7.5950  -7.5950
    -7.4294  -7.4294  -7.4294  -7.4294  -7.4210  -7.4210  -7.4210  -7.4210
    -7.3256  -7.3256  -7.3256  -7.3256  -7.3178  -7.3178  -7.3178  -7.3178
    -7.3000  -7.3000  -7.3000  -7.3000  -7.2875  -7.2875  -7.2875  -7.2875
    -7.2477  -7.2477  -7.2477  -7.2477  -7.1554  -7.1554  -7.1553  -7.1553
    -7.0833  -7.0833  -7.0833  -7.0833  -1.6273  -1.6273  -1.6273  -1.6273
    -1.4327  -1.4327  -1.4327  -1.4327  -1.2087  -1.2087  -1.2087  -1.2087
     1.8308   1.8308   1.8308   1.8308   2.5111   2.5111   2.5111   2.5111
     3.3841   3.3841   3.3841   3.3841   6.2145   6.2145   6.2145   6.2145
     7.2870   7.2870   7.2870   7.2870   8.5994   8.5994   8.5994   8.5994
     9.9798   9.9799   9.9799   9.9800  10.1889  10.1889  10.1889  10.1890
    10.3180  10.3182  10.3184  10.3185

     the Fermi energy is     3.9282 ev

!    total energy              =   -1739.56011153 Ry
     estimated scf accuracy    <       0.00000028 Ry
     smearing contrib. (-TS)   =      -0.01027052 Ry
     internal energy E=F+TS    =   -1739.54984101 Ry

     The total energy is F=E-TS. E is the sum of the following terms:
     one-electron contribution =   -6585.70440155 Ry
     hartree contribution      =    3389.08815146 Ry
     xc contribution           =    -744.70957709 Ry
     ewald contribution        =    2201.77598618 Ry
     electric field correction =       0.00000000 Ry

     convergence has been achieved in  19 iterations

     negative rho (up, down):  6.106E-01 0.000E+00

     Forces acting on atoms (cartesian axes, Ry/au):

     atom    1 type  1   force =    -0.00025457   -0.00025508    0.00000011
     atom    2 type  1   force =    -0.00087923   -0.00087839   -0.00000185
     atom    3 type  1   force =    -0.00128933   -0.00129022    0.00000032
     atom    4 type  1   force =     0.00133353    0.00133585   -0.00000066
     atom    5 type  1   force =     0.00087811    0.00087848   -0.00000012
     atom    6 type  1   force =     0.00021282    0.00021103    0.00000078
     atom    7 type  1   force =     0.00133586    0.00133501   -0.00000031
     atom    8 type  1   force =     0.00087714    0.00087826    0.00000061
     atom    9 type  1   force =     0.00020951    0.00020998    0.00000017
     atom   10 type  1   force =    -0.00025484   -0.00025562    0.00000060
     atom   11 type  1   force =    -0.00087783   -0.00087856    0.00000022
     atom   12 type  1   force =    -0.00129117   -0.00129073    0.00000013

     Total force =     0.004516     Total SCF correction =     0.004762
     SCF correction compared to forces is large: reduce conv_thr to get better values

     Writing all to output data dir ./calc.save/
 
     init_run     :     11.06s CPU     11.73s WALL (       1 calls)
     electrons    :    774.27s CPU    782.94s WALL (       1 calls)
     forces       :      5.32s CPU      5.41s WALL (       1 calls)

     Called by init_run:
     wfcinit      :      9.84s CPU     10.05s WALL (       1 calls)
     potinit      :      0.27s CPU      0.29s WALL (       1 calls)
     hinit0       :      0.48s CPU      0.85s WALL (       1 calls)

     Called by electrons:
     c_bands      :    679.92s CPU    685.52s WALL (      20 calls)
     sum_band     :     81.66s CPU     83.62s WALL (      20 calls)
     v_of_rho     :      1.69s CPU      1.83s WALL (      20 calls)
     newd         :      3.19s CPU      3.99s WALL (      20 calls)
     mix_rho      :      7.89s CPU      7.97s WALL (      20 calls)

     Called by c_bands:
     init_us_2    :      7.03s CPU      7.06s WALL (    3024 calls)
     init_us_2:cp :      7.01s CPU      7.05s WALL (    3024 calls)
     cegterg      :    637.38s CPU    642.63s WALL (    1440 calls)

     Called by *egterg:
     cdiaghg      :    100.91s CPU    101.05s WALL (    8381 calls)
     h_psi        :    329.67s CPU    333.82s WALL (    8525 calls)
     s_psi        :     41.57s CPU     41.64s WALL (    8525 calls)
     g_psi        :      2.17s CPU      2.19s WALL (    7013 calls)

     Called by h_psi:
     h_psi:calbec :     42.42s CPU     42.63s WALL (    8525 calls)
     vloc_psi     :    241.31s CPU    245.06s WALL (    8525 calls)
     add_vuspsi   :     41.25s CPU     41.32s WALL (    8525 calls)

     General routines
     calbec       :     61.14s CPU     61.45s WALL (   10253 calls)
     fft          :      1.22s CPU      1.58s WALL (     270 calls)
     ffts         :      3.30s CPU      3.32s WALL (    5662 calls)
     fftw         :    256.55s CPU    260.48s WALL (  906364 calls)
     interpolate  :      0.10s CPU      0.10s WALL (      20 calls)
 
     Parallel routines
 
     PWSCF        :  13m14.67s CPU  13m31.28s WALL

 
   This run was terminated on:   2:19:28   8Aug2023            

=------------------------------------------------------------------------------=
   JOB DONE.
=------------------------------------------------------------------------------=
