  python dir          : /home/p.schindler/.conda/envs/dft3_8/lib/python3.8/site-packages/espresso
  espresso dir        : /home/p.schindler/q-e_7-1/bin/
  pseudo dir          : /home/p.schindler/q-e_7-1/PSPs/Vanderbilt_USPP_PBE/
  ase-espresso py git : 4b1d7e3-git



     Program PWSCF v.7.1 starts on  8Aug2023 at  2: 6:58 

     This program is part of the open-source Quantum ESPRESSO suite
     for quantum simulation of materials; please cite
         "P. Giannozzi et al., J. Phys.:Condens. Matter 21 395502 (2009);
         "P. Giannozzi et al., J. Phys.:Condens. Matter 29 465901 (2017);
         "P. Giannozzi et al., J. Chem. Phys. 152 154105 (2020);
          URL http://www.quantum-espresso.org", 
     in publications or presentations arising from this work. More details at
     http://www.quantum-espresso.org/quote

     Parallel version (MPI), running on    20 processors

     MPI processes distributed on     1 nodes
     37095 MiB available memory on the printing compute node when the environment starts
 
     Reading input from pw.inp

     Current dimensions of program PWSCF are:
     Max number of different atomic species (ntypx) = 10
     Max number of k-points (npk) =  40000
     Max angular momentum in pseudopotentials (lmaxx) =  4
     Presently no symmetry can be used with electric field


     IMPORTANT: XC functional enforced from input :
     Exchange-correlation= PBE
                           (   1   4   3   4   0   0   0)
     Any further DFT definition will be discarded
     Please, verify this is what you really want

 
     R & G space division:  proc/nbgrp/npool/nimage =      20
     Subspace diagonalization in iterative solution of the eigenvalue problem:
     a serial algorithm will be used

 
     Parallelization info
     --------------------
     sticks:   dense  smooth     PW     G-vecs:    dense   smooth      PW
     Min         490     196     53               145941    36911    5344
     Max         492     197     54               145949    36923    5361
     Sum        9811    3931   1077              2918907   738323  107085
 
     Using Slab Decomposition
 


     bravais-lattice index     =            0
     lattice parameter (alat)  =      17.2840  a.u.
     unit-cell volume          =   11071.0991 (a.u.)^3
     number of atoms/cell      =           50
     number of atomic types    =            2
     number of electrons       =       590.00
     number of Kohn-Sham states=          325
     kinetic-energy cutoff     =      62.4738  Ry
     charge density cutoff     =     624.7385  Ry
     scf convergence threshold =      7.3E-07
     mixing beta               =       0.1500
     number of iterations used =           10  local-TF  mixing
     Exchange-correlation= PBE
                           (   1   4   3   4   0   0   0)

     celldm(1)=  17.284009  celldm(2)=   0.000000  celldm(3)=   0.000000
     celldm(4)=   0.000000  celldm(5)=   0.000000  celldm(6)=   0.000000

     crystal axes: (cart. coord. in units of alat)
               a(1) = (  -0.707107   0.707107   0.000000 )  
               a(2) = (  -0.707107   0.000000   0.433336 )  
               a(3) = (   1.399515   1.399515   2.572992 )  

     reciprocal axes: (cart. coord. in units 2 pi/alat)
               b(1) = ( -0.282843  1.131371 -0.461536 )  
               b(2) = ( -0.848528 -0.848528  0.923071 )  
               b(3) = (  0.142907  0.142907  0.233192 )  


     PseudoPot. # 1 for Mn read from file:
     /home/p.schindler/q-e_7-1/PSPs/Vanderbilt_USPP_PBE/Mn.UPF
     MD5 check sum: 82ef2b46521d7a7d9e736dc3972e4928
     Pseudo is Ultrasoft + core correction, Zval = 15.0
     Generated by new atomic code, or converted to UPF format
     Using radial grid of  859 points,  6 beta functions with: 
                l(1) =   0
                l(2) =   0
                l(3) =   1
                l(4) =   1
                l(5) =   2
                l(6) =   2
     Q(r) pseudized with  8 coefficients,  rinner =    0.950   0.950   0.950
                                                       0.950   0.950

     PseudoPot. # 2 for Au read from file:
     /home/p.schindler/q-e_7-1/PSPs/Vanderbilt_USPP_PBE/Au.UPF
     MD5 check sum: 9d7f43293ad2c663164586bc4b293ffc
     Pseudo is Ultrasoft + core correction, Zval = 11.0
     Generated by new atomic code, or converted to UPF format
     Using radial grid of  985 points,  7 beta functions with: 
                l(1) =   0
                l(2) =   0
                l(3) =   1
                l(4) =   1
                l(5) =   2
                l(6) =   2
                l(7) =   3
     Q(r) pseudized with  6 coefficients,  rinner =    1.900   1.900   1.900
                                                       1.900   1.900   1.900
                                                       1.900

     atomic species   valence    mass     pseudopotential
        Mn1           15.00    54.93804     Mn( 1.00)
        Au1           11.00   196.96657     Au( 1.00)

     No symmetry found



   Cartesian axes

     site n.     atom                  positions (alat units)
         1           Mn1 tau(   1) = (  -0.3536503   1.0605632   1.0831619  )
         2           Mn1 tau(   2) = (  -0.3536503   1.0605632   1.5164980  )
         3           Mn1 tau(   3) = (   0.3535272   0.3535272   0.6499559  )
         4           Mn1 tau(   4) = (   0.3534564   1.0605632   1.5164980  )
         5           Mn1 tau(   5) = (   0.3534564   1.0605632   1.9498341  )
         6           Mn1 tau(   6) = (   0.7070098   0.7070098   1.2998300  )
         7           Mn1 tau(   7) = (  -0.0000969   1.4141166   1.7331661  )
         8           Mn1 tau(   8) = (  -0.0000969   0.7070098   1.2998300  )
         9           Mn1 tau(   9) = (  -0.0000969   1.4141166   2.1665021  )
        10           Mn1 tau(  10) = (  -0.0000969   0.7070098   0.8664939  )
        11           Au1 tau(  11) = (   0.0717062   0.9158809   1.5164980  )
        12           Au1 tau(  12) = (   0.0717062   0.9158809   1.9498341  )
        13           Au1 tau(  13) = (   0.0717062   0.9158809   1.0831619  )
        14           Au1 tau(  14) = (   0.0717062   1.6229877   1.9498341  )
        15           Au1 tau(  15) = (  -0.6354006   0.9158809   1.0831619  )
        16           Au1 tau(  16) = (  -0.1447793   0.9887601   1.7331661  )
        17           Au1 tau(  17) = (   0.5623275   0.9887601   1.7331661  )
        18           Au1 tau(  18) = (  -0.1447793   0.9887601   1.2998300  )
        19           Au1 tau(  19) = (  -0.1447793   1.6958669   2.1665021  )
        20           Au1 tau(  20) = (  -0.1447793   0.9887601   0.8664939  )
        21           Au1 tau(  21) = (   0.1445854   1.1323664   1.2998300  )
        22           Au1 tau(  22) = (   0.1445854   1.1323664   1.7331661  )
        23           Au1 tau(  23) = (  -0.5625214   1.1323664   1.2998300  )
        24           Au1 tau(  24) = (   0.1445854   1.1323664   2.1665021  )
        25           Au1 tau(  25) = (   0.1445854   0.4252596   0.8664939  )
        26           Au1 tau(  26) = (  -0.0719001   1.2052456   1.0831619  )
        27           Au1 tau(  27) = (  -0.0719001   1.2052456   1.5164980  )
        28           Au1 tau(  28) = (  -0.0719001   0.4981388   1.0831619  )
        29           Au1 tau(  29) = (  -0.0719001   1.2052456   1.9498341  )
        30           Au1 tau(  30) = (   0.6352067   1.2052456   1.9498341  )
        31           Au1 tau(  31) = (  -0.2818472   1.2694343   1.2998300  )
        32           Au1 tau(  32) = (  -0.2818472   1.2694343   1.7331661  )
        33           Au1 tau(  33) = (  -0.2818472   0.5623275   1.2998300  )
        34           Au1 tau(  34) = (   0.4252596   1.2694343   1.7331661  )
        35           Au1 tau(  35) = (   0.4252596   1.2694343   2.1665021  )
        36           Au1 tau(  36) = (  -0.4983327   1.3423135   1.5164980  )
        37           Au1 tau(  37) = (   0.2087741   1.3423135   1.5164980  )
        38           Au1 tau(  38) = (   0.2087741   0.6352067   1.0831619  )
        39           Au1 tau(  39) = (   0.2087741   1.3423135   1.9498341  )
        40           Au1 tau(  40) = (  -0.4983327   0.6352067   1.0831619  )
        41           Au1 tau(  41) = (  -0.2089680   0.7788130   1.5164980  )
        42           Au1 tau(  42) = (   0.4981388   0.7788130   1.5164980  )
        43           Au1 tau(  43) = (  -0.2089680   0.7788130   1.0831619  )
        44           Au1 tau(  44) = (  -0.2089680   1.4859197   1.9498341  )
        45           Au1 tau(  45) = (   0.4981388   1.4859197   1.9498341  )
        46           Au1 tau(  46) = (   0.2816533   0.8516922   1.7331661  )
        47           Au1 tau(  47) = (   0.2816533   1.5587990   1.7331661  )
        48           Au1 tau(  48) = (   0.2816533   0.8516922   1.2998300  )
        49           Au1 tau(  49) = (  -0.4254535   0.8516922   0.8664939  )
        50           Au1 tau(  50) = (  -0.4254535   0.8516922   1.2998300  )

     number of k points=    42  Gaussian smearing, width (Ry)=  0.0147
                       cart. coord. in units 2pi/alat
        k(    1) = (   0.0000000   0.0000000   0.0000000), wk =   0.0250000
        k(    2) = (  -0.0848528  -0.0848528   0.0923071), wk =   0.0500000
        k(    3) = (  -0.1697056  -0.1697056   0.1846142), wk =   0.0500000
        k(    4) = (  -0.2545584  -0.2545584   0.2769213), wk =   0.0500000
        k(    5) = (  -0.3394113  -0.3394113   0.3692284), wk =   0.0500000
        k(    6) = (   0.4242641   0.4242641  -0.4615355), wk =   0.0250000
        k(    7) = (  -0.0353553   0.1414214  -0.0576919), wk =   0.0500000
        k(    8) = (  -0.1202082   0.0565685   0.0346152), wk =   0.0500000
        k(    9) = (  -0.2050610  -0.0282843   0.1269223), wk =   0.0500000
        k(   10) = (  -0.2899138  -0.1131371   0.2192294), wk =   0.0500000
        k(   11) = (  -0.3747666  -0.1979899   0.3115365), wk =   0.0500000
        k(   12) = (   0.3889087   0.5656854  -0.5192275), wk =   0.0500000
        k(   13) = (   0.3040559   0.4808326  -0.4269204), wk =   0.0500000
        k(   14) = (   0.2192031   0.3959798  -0.3346133), wk =   0.0500000
        k(   15) = (   0.1343503   0.3111270  -0.2423062), wk =   0.0500000
        k(   16) = (   0.0494975   0.2262742  -0.1499991), wk =   0.0500000
        k(   17) = (  -0.0707107   0.2828427  -0.1153839), wk =   0.0500000
        k(   18) = (  -0.1555635   0.1979899  -0.0230768), wk =   0.0500000
        k(   19) = (  -0.2404163   0.1131371   0.0692303), wk =   0.0500000
        k(   20) = (  -0.3252691   0.0282843   0.1615374), wk =   0.0500000
        k(   21) = (  -0.4101219  -0.0565685   0.2538445), wk =   0.0500000
        k(   22) = (   0.3535534   0.7071068  -0.5769194), wk =   0.0500000
        k(   23) = (   0.2687006   0.6222540  -0.4846123), wk =   0.0500000
        k(   24) = (   0.1838478   0.5374012  -0.3923052), wk =   0.0500000
        k(   25) = (   0.0989949   0.4525483  -0.2999981), wk =   0.0500000
        k(   26) = (   0.0141421   0.3676955  -0.2076910), wk =   0.0500000
        k(   27) = (  -0.1060660   0.4242641  -0.1730758), wk =   0.0500000
        k(   28) = (  -0.1909188   0.3394113  -0.0807687), wk =   0.0500000
        k(   29) = (  -0.2757716   0.2545584   0.0115384), wk =   0.0500000
        k(   30) = (  -0.3606245   0.1697056   0.1038455), wk =   0.0500000
        k(   31) = (  -0.4454773   0.0848528   0.1961526), wk =   0.0500000
        k(   32) = (   0.3181981   0.8485281  -0.6346114), wk =   0.0500000
        k(   33) = (   0.2333452   0.7636753  -0.5423043), wk =   0.0500000
        k(   34) = (   0.1484924   0.6788225  -0.4499972), wk =   0.0500000
        k(   35) = (   0.0636396   0.5939697  -0.3576900), wk =   0.0500000
        k(   36) = (  -0.0212132   0.5091169  -0.2653829), wk =   0.0500000
        k(   37) = (   0.1414214  -0.5656854   0.2307678), wk =   0.0250000
        k(   38) = (   0.0565685  -0.6505382   0.3230749), wk =   0.0500000
        k(   39) = (  -0.0282843  -0.7353911   0.4153820), wk =   0.0500000
        k(   40) = (  -0.1131371  -0.8202439   0.5076891), wk =   0.0500000
        k(   41) = (  -0.1979899  -0.9050967   0.5999962), wk =   0.0500000
        k(   42) = (   0.5656854  -0.1414214  -0.2307678), wk =   0.0250000

     Dense  grid:  2918907 G-vectors     FFT dimensions: ( 144, 120, 450)

     Smooth grid:   738323 G-vectors     FFT dimensions: (  90,  75, 288)

     Estimated max dynamical RAM per process >       2.17 GB

     Estimated total dynamical RAM >      43.42 GB

     Check: negative core charge=   -0.000007

     Initial potential from superposition of free atoms

     starting charge     584.9943, renormalised to     590.0000

     negative rho (up, down):  1.727E-03 0.000E+00
 
     Adding external electric field

     Computed dipole along edir(3) : 
        Dipole               -5.3194 Ry au,        -13.5206 Debye
        Dipole field         -0.0060 Ry au, 
 
        Potential amp.        0.6606 Ry
        Total length         54.7040 bohr
 
     Starting wfcs are  490 randomized atomic wfcs

     total cpu time spent up to now is      226.8 secs

     Self-consistent Calculation

     iteration #  1     ecut=    62.47 Ry     beta= 0.15
     Davidson diagonalization with overlap
     ethr =  1.00E-02,  avg # of iterations =  2.0

     negative rho (up, down):  2.584E-02 0.000E+00
 
     Adding external electric field

     Computed dipole along edir(3) : 
        Dipole               -4.4932 Ry au,        -11.4205 Debye
        Dipole field         -0.0051 Ry au, 
 
        Potential amp.        0.5580 Ry
        Total length         54.7040 bohr
 

     total cpu time spent up to now is      690.2 secs

     total energy              =   -6711.54185004 Ry
     estimated scf accuracy    <    2725.84571630 Ry

     iteration #  2     ecut=    62.47 Ry     beta= 0.15
     Davidson diagonalization with overlap
     ethr =  1.00E-02,  avg # of iterations =  1.0

     negative rho (up, down):  7.957E-02 0.000E+00
 
     Adding external electric field

     Computed dipole along edir(3) : 
        Dipole               -3.5819 Ry au,         -9.1043 Debye
        Dipole field         -0.0041 Ry au, 
 
        Potential amp.        0.4448 Ry
        Total length         54.7040 bohr
 

     total cpu time spent up to now is     1078.0 secs

     total energy              =   -6705.35635880 Ry
     estimated scf accuracy    <     927.56464863 Ry

     iteration #  3     ecut=    62.47 Ry     beta= 0.15
     Davidson diagonalization with overlap
     ethr =  1.00E-02,  avg # of iterations =  1.6

     negative rho (up, down):  1.029E-01 0.000E+00
 
     Adding external electric field

     Computed dipole along edir(3) : 
        Dipole               -3.2298 Ry au,         -8.2094 Debye
        Dipole field         -0.0037 Ry au, 
 
        Potential amp.        0.4011 Ry
        Total length         54.7040 bohr
 

     total cpu time spent up to now is     1448.8 secs

     total energy              =   -6709.70048257 Ry
     estimated scf accuracy    <     116.55320669 Ry

     iteration #  4     ecut=    62.47 Ry     beta= 0.15
     Davidson diagonalization with overlap
     ethr =  1.00E-02,  avg # of iterations =  1.0

     negative rho (up, down):  1.169E-01 0.000E+00
 
     Adding external electric field

     Computed dipole along edir(3) : 
        Dipole               -2.9331 Ry au,         -7.4553 Debye
        Dipole field         -0.0033 Ry au, 
 
        Potential amp.        0.3643 Ry
        Total length         54.7040 bohr
 

     total cpu time spent up to now is     1795.8 secs

     total energy              =   -6709.03562359 Ry
     estimated scf accuracy    <      94.76876754 Ry

     iteration #  5     ecut=    62.47 Ry     beta= 0.15
     Davidson diagonalization with overlap
     ethr =  1.00E-02,  avg # of iterations =  1.0

     negative rho (up, down):  1.343E-01 0.000E+00
 
     Adding external electric field

     Computed dipole along edir(3) : 
        Dipole               -2.4592 Ry au,         -6.2506 Debye
        Dipole field         -0.0028 Ry au, 
 
        Potential amp.        0.3054 Ry
        Total length         54.7040 bohr
 

     total cpu time spent up to now is     2154.1 secs

     total energy              =   -6708.53719505 Ry
     estimated scf accuracy    <      45.83481319 Ry

     iteration #  6     ecut=    62.47 Ry     beta= 0.15
     Davidson diagonalization with overlap
     ethr =  7.77E-03,  avg # of iterations =  1.0

     negative rho (up, down):  1.640E-01 0.000E+00
 
     Adding external electric field

     Computed dipole along edir(3) : 
        Dipole               -1.6808 Ry au,         -4.2721 Debye
        Dipole field         -0.0019 Ry au, 
 
        Potential amp.        0.2087 Ry
        Total length         54.7040 bohr
 

     total cpu time spent up to now is     2517.0 secs

     total energy              =   -6708.34690915 Ry
     estimated scf accuracy    <     129.80746289 Ry

     iteration #  7     ecut=    62.47 Ry     beta= 0.15
     Davidson diagonalization with overlap
     ethr =  7.77E-03,  avg # of iterations =  1.5

     negative rho (up, down):  1.641E-01 0.000E+00
 
     Adding external electric field

     Computed dipole along edir(3) : 
        Dipole               -1.6880 Ry au,         -4.2904 Debye
        Dipole field         -0.0019 Ry au, 
 
        Potential amp.        0.2096 Ry
        Total length         54.7040 bohr
 

     total cpu time spent up to now is     2902.4 secs

     total energy              =   -6709.43772349 Ry
     estimated scf accuracy    <      33.31379749 Ry

     iteration #  8     ecut=    62.47 Ry     beta= 0.15
     Davidson diagonalization with overlap
     ethr =  5.65E-03,  avg # of iterations =  1.3

     negative rho (up, down):  1.733E-01 0.000E+00
 
     Adding external electric field

     Computed dipole along edir(3) : 
        Dipole               -1.3037 Ry au,         -3.3136 Debye
        Dipole field         -0.0015 Ry au, 
 
        Potential amp.        0.1619 Ry
        Total length         54.7040 bohr
 

     total cpu time spent up to now is     3277.0 secs

     total energy              =   -6709.70416091 Ry
     estimated scf accuracy    <      33.27960027 Ry

     iteration #  9     ecut=    62.47 Ry     beta= 0.15
     Davidson diagonalization with overlap
     ethr =  5.64E-03,  avg # of iterations =  1.6

     negative rho (up, down):  1.727E-01 0.000E+00
 
     Adding external electric field

     Computed dipole along edir(3) : 
        Dipole               -1.2967 Ry au,         -3.2960 Debye
        Dipole field         -0.0015 Ry au, 
 
        Potential amp.        0.1610 Ry
        Total length         54.7040 bohr
 

     total cpu time spent up to now is     3666.9 secs

     total energy              =   -6710.28754739 Ry
     estimated scf accuracy    <      48.46267730 Ry

     iteration # 10     ecut=    62.47 Ry     beta= 0.15
     Davidson diagonalization with overlap
     ethr =  5.64E-03,  avg # of iterations =  1.1

     negative rho (up, down):  1.643E-01 0.000E+00
 
     Adding external electric field

     Computed dipole along edir(3) : 
        Dipole               -1.1117 Ry au,         -2.8257 Debye
        Dipole field         -0.0013 Ry au, 
 
        Potential amp.        0.1381 Ry
        Total length         54.7040 bohr
 

     total cpu time spent up to now is     4047.6 secs

     total energy              =   -6710.31778681 Ry
     estimated scf accuracy    <      50.04325772 Ry

     iteration # 11     ecut=    62.47 Ry     beta= 0.15
     Davidson diagonalization with overlap
     ethr =  5.64E-03,  avg # of iterations =  1.0

     negative rho (up, down):  1.524E-01 0.000E+00
 
     Adding external electric field

     Computed dipole along edir(3) : 
        Dipole               -0.8279 Ry au,         -2.1043 Debye
        Dipole field         -0.0009 Ry au, 
 
        Potential amp.        0.1028 Ry
        Total length         54.7040 bohr
 

     total cpu time spent up to now is     4413.1 secs

     total energy              =   -6711.15931084 Ry
     estimated scf accuracy    <      54.53283773 Ry

     iteration # 12     ecut=    62.47 Ry     beta= 0.15
     Davidson diagonalization with overlap
     ethr =  5.64E-03,  avg # of iterations =  1.0

     negative rho (up, down):  1.441E-01 0.000E+00
 
     Adding external electric field

     Computed dipole along edir(3) : 
        Dipole               -0.6930 Ry au,         -1.7614 Debye
        Dipole field         -0.0008 Ry au, 
 
        Potential amp.        0.0861 Ry
        Total length         54.7040 bohr
 

     total cpu time spent up to now is     4792.1 secs

     total energy              =   -6711.56625101 Ry
     estimated scf accuracy    <      50.87417025 Ry

     iteration # 13     ecut=    62.47 Ry     beta= 0.15
     Davidson diagonalization with overlap
     ethr =  5.64E-03,  avg # of iterations =  1.0

     negative rho (up, down):  1.240E-01 0.000E+00
 
     Adding external electric field

     Computed dipole along edir(3) : 
        Dipole               -0.2733 Ry au,         -0.6946 Debye
        Dipole field         -0.0003 Ry au, 
 
        Potential amp.        0.0339 Ry
        Total length         54.7040 bohr
 

     total cpu time spent up to now is     5167.5 secs

     total energy              =   -6711.57453137 Ry
     estimated scf accuracy    <      51.80803510 Ry

     iteration # 14     ecut=    62.47 Ry     beta= 0.15
     Davidson diagonalization with overlap
     ethr =  5.64E-03,  avg # of iterations =  1.0

     negative rho (up, down):  1.094E-01 0.000E+00
 
     Adding external electric field

     Computed dipole along edir(3) : 
        Dipole               -0.0440 Ry au,         -0.1118 Debye
        Dipole field         -0.0000 Ry au, 
 
        Potential amp.        0.0055 Ry
        Total length         54.7040 bohr
 

     total cpu time spent up to now is     5538.5 secs

     total energy              =   -6712.10010389 Ry
     estimated scf accuracy    <      71.07884103 Ry

     iteration # 15     ecut=    62.47 Ry     beta= 0.15
     Davidson diagonalization with overlap
     ethr =  5.64E-03,  avg # of iterations =  1.0

     negative rho (up, down):  1.034E-01 0.000E+00
 
     Adding external electric field

     Computed dipole along edir(3) : 
        Dipole                0.0462 Ry au,          0.1175 Debye
        Dipole field          0.0001 Ry au, 
 
        Potential amp.       -0.0057 Ry
        Total length         54.7040 bohr
 

     total cpu time spent up to now is     5901.1 secs

     total energy              =   -6712.14372236 Ry
     estimated scf accuracy    <      88.36036623 Ry

     iteration # 16     ecut=    62.47 Ry     beta= 0.15
     Davidson diagonalization with overlap
     ethr =  5.64E-03,  avg # of iterations =  1.0

     negative rho (up, down):  9.831E-02 0.000E+00
 
     Adding external electric field

     Computed dipole along edir(3) : 
        Dipole                0.0021 Ry au,          0.0054 Debye
        Dipole field          0.0000 Ry au, 
 
        Potential amp.       -0.0003 Ry
        Total length         54.7040 bohr
 

     total cpu time spent up to now is     6278.4 secs

     total energy              =   -6711.41533001 Ry
     estimated scf accuracy    <     101.93837777 Ry

     iteration # 17     ecut=    62.47 Ry     beta= 0.15
     Davidson diagonalization with overlap
     ethr =  5.64E-03,  avg # of iterations =  1.0

     negative rho (up, down):  9.065E-02 0.000E+00
 
     Adding external electric field

     Computed dipole along edir(3) : 
        Dipole               -0.1092 Ry au,         -0.2776 Debye
        Dipole field         -0.0001 Ry au, 
 
        Potential amp.        0.0136 Ry
        Total length         54.7040 bohr
 

     total cpu time spent up to now is     6635.7 secs

     total energy              =   -6711.21185173 Ry
     estimated scf accuracy    <     105.59677402 Ry

     iteration # 18     ecut=    62.47 Ry     beta= 0.15
     Davidson diagonalization with overlap
     ethr =  5.64E-03,  avg # of iterations =  1.0

     negative rho (up, down):  9.655E-02 0.000E+00
 
     Adding external electric field

     Computed dipole along edir(3) : 
        Dipole               -0.7107 Ry au,         -1.8064 Debye
        Dipole field         -0.0008 Ry au, 
 
        Potential amp.        0.0883 Ry
        Total length         54.7040 bohr
 

     total cpu time spent up to now is     7004.2 secs

     total energy              =   -6710.39949943 Ry
     estimated scf accuracy    <      78.89721827 Ry

     iteration # 19     ecut=    62.47 Ry     beta= 0.15
     Davidson diagonalization with overlap
     ethr =  5.64E-03,  avg # of iterations =  1.0

     negative rho (up, down):  1.195E-01 0.000E+00
 
     Adding external electric field

     Computed dipole along edir(3) : 
        Dipole               -0.9436 Ry au,         -2.3985 Debye
        Dipole field         -0.0011 Ry au, 
 
        Potential amp.        0.1172 Ry
        Total length         54.7040 bohr
 

     total cpu time spent up to now is     7379.0 secs

     total energy              =   -6710.51628085 Ry
     estimated scf accuracy    <      52.24935292 Ry

     iteration # 20     ecut=    62.47 Ry     beta= 0.15
     Davidson diagonalization with overlap
     ethr =  5.64E-03,  avg # of iterations =  1.0

     negative rho (up, down):  1.313E-01 0.000E+00
 
     Adding external electric field

     Computed dipole along edir(3) : 
        Dipole               -1.7807 Ry au,         -4.5260 Debye
        Dipole field         -0.0020 Ry au, 
 
        Potential amp.        0.2211 Ry
        Total length         54.7040 bohr
 

     total cpu time spent up to now is     7753.0 secs

     total energy              =   -6709.00290897 Ry
     estimated scf accuracy    <      57.16470781 Ry

     iteration # 21     ecut=    62.47 Ry     beta= 0.15
     Davidson diagonalization with overlap
     ethr =  5.64E-03,  avg # of iterations =  1.0

     negative rho (up, down):  1.406E-01 0.000E+00
 
     Adding external electric field

     Computed dipole along edir(3) : 
        Dipole               -1.7690 Ry au,         -4.4963 Debye
        Dipole field         -0.0020 Ry au, 
 
        Potential amp.        0.2197 Ry
        Total length         54.7040 bohr
 

     total cpu time spent up to now is     8126.5 secs

     total energy              =   -6709.69799077 Ry
     estimated scf accuracy    <      19.20982862 Ry

     iteration # 22     ecut=    62.47 Ry     beta= 0.15
     Davidson diagonalization with overlap
     ethr =  3.26E-03,  avg # of iterations =  1.0

     negative rho (up, down):  1.472E-01 0.000E+00
 
     Adding external electric field

     Computed dipole along edir(3) : 
        Dipole               -1.5263 Ry au,         -3.8795 Debye
        Dipole field         -0.0017 Ry au, 
 
        Potential amp.        0.1895 Ry
        Total length         54.7040 bohr
 

     total cpu time spent up to now is     8496.0 secs

     total energy              =   -6709.70332473 Ry
     estimated scf accuracy    <       5.57440855 Ry

     iteration # 23     ecut=    62.47 Ry     beta= 0.15
     Davidson diagonalization with overlap
     ethr =  9.45E-04,  avg # of iterations =  1.5

     negative rho (up, down):  1.459E-01 0.000E+00
 
     Adding external electric field

     Computed dipole along edir(3) : 
        Dipole               -1.7246 Ry au,         -4.3836 Debye
        Dipole field         -0.0020 Ry au, 
 
        Potential amp.        0.2142 Ry
        Total length         54.7040 bohr
 

     total cpu time spent up to now is     8881.2 secs

     total energy              =   -6709.74061207 Ry
     estimated scf accuracy    <      14.94542626 Ry

     iteration # 24     ecut=    62.47 Ry     beta= 0.15
     Davidson diagonalization with overlap
     ethr =  9.45E-04,  avg # of iterations =  1.4

     negative rho (up, down):  1.492E-01 0.000E+00
 
     Adding external electric field

     Computed dipole along edir(3) : 
        Dipole               -1.5937 Ry au,         -4.0509 Debye
        Dipole field         -0.0018 Ry au, 
 
        Potential amp.        0.1979 Ry
        Total length         54.7040 bohr
 

     total cpu time spent up to now is     9266.0 secs

     total energy              =   -6709.85994127 Ry
     estimated scf accuracy    <       8.93448455 Ry

     iteration # 25     ecut=    62.47 Ry     beta= 0.15
     Davidson diagonalization with overlap
     ethr =  9.45E-04,  avg # of iterations =  1.1

     negative rho (up, down):  1.465E-01 0.000E+00
 
     Adding external electric field

     Computed dipole along edir(3) : 
        Dipole               -1.6038 Ry au,         -4.0764 Debye
        Dipole field         -0.0018 Ry au, 
 
        Potential amp.        0.1992 Ry
        Total length         54.7040 bohr
 

     total cpu time spent up to now is     9648.3 secs

     total energy              =   -6709.85055265 Ry
     estimated scf accuracy    <       5.33613465 Ry

     iteration # 26     ecut=    62.47 Ry     beta= 0.15
     Davidson diagonalization with overlap
     ethr =  9.04E-04,  avg # of iterations =  1.1

     negative rho (up, down):  1.327E-01 0.000E+00
 
     Adding external electric field

     Computed dipole along edir(3) : 
        Dipole               -1.4425 Ry au,         -3.6665 Debye
        Dipole field         -0.0016 Ry au, 
 
        Potential amp.        0.1791 Ry
        Total length         54.7040 bohr
 

     total cpu time spent up to now is    10030.7 secs

     total energy              =   -6709.78718913 Ry
     estimated scf accuracy    <       2.65890821 Ry

     iteration # 27     ecut=    62.47 Ry     beta= 0.15
     Davidson diagonalization with overlap
     ethr =  4.51E-04,  avg # of iterations =  1.2

     negative rho (up, down):  1.285E-01 0.000E+00
 
     Adding external electric field

     Computed dipole along edir(3) : 
        Dipole               -1.4480 Ry au,         -3.6804 Debye
        Dipole field         -0.0016 Ry au, 
 
        Potential amp.        0.1798 Ry
        Total length         54.7040 bohr
 

     total cpu time spent up to now is    10403.5 secs

     total energy              =   -6709.81610897 Ry
     estimated scf accuracy    <       8.33668339 Ry

     iteration # 28     ecut=    62.47 Ry     beta= 0.15
     Davidson diagonalization with overlap
     ethr =  4.51E-04,  avg # of iterations =  1.0

     negative rho (up, down):  1.142E-01 0.000E+00
 
     Adding external electric field

     Computed dipole along edir(3) : 
        Dipole               -1.2595 Ry au,         -3.2014 Debye
        Dipole field         -0.0014 Ry au, 
 
        Potential amp.        0.1564 Ry
        Total length         54.7040 bohr
 

     total cpu time spent up to now is    10781.9 secs

     total energy              =   -6709.78886215 Ry
     estimated scf accuracy    <       3.70065716 Ry

     iteration # 29     ecut=    62.47 Ry     beta= 0.15
     Davidson diagonalization with overlap
     ethr =  4.51E-04,  avg # of iterations =  1.0

     negative rho (up, down):  9.945E-02 0.000E+00
 
     Adding external electric field

     Computed dipole along edir(3) : 
        Dipole               -1.1341 Ry au,         -2.8825 Debye
        Dipole field         -0.0013 Ry au, 
 
        Potential amp.        0.1408 Ry
        Total length         54.7040 bohr
 

     total cpu time spent up to now is    11149.9 secs

     total energy              =   -6709.77522054 Ry
     estimated scf accuracy    <       6.18713782 Ry

     iteration # 30     ecut=    62.47 Ry     beta= 0.15
     Davidson diagonalization with overlap
     ethr =  4.51E-04,  avg # of iterations =  1.0

     negative rho (up, down):  8.463E-02 0.000E+00
 
     Adding external electric field

     Computed dipole along edir(3) : 
        Dipole               -1.1086 Ry au,         -2.8177 Debye
        Dipole field         -0.0013 Ry au, 
 
        Potential amp.        0.1377 Ry
        Total length         54.7040 bohr
 

     total cpu time spent up to now is    11512.8 secs

     total energy              =   -6709.75828144 Ry
     estimated scf accuracy    <       7.79495263 Ry

     iteration # 31     ecut=    62.47 Ry     beta= 0.15
     Davidson diagonalization with overlap
     ethr =  4.51E-04,  avg # of iterations =  1.0

     negative rho (up, down):  9.514E-02 0.000E+00
 
     Adding external electric field

     Computed dipole along edir(3) : 
        Dipole               -1.2216 Ry au,         -3.1050 Debye
        Dipole field         -0.0014 Ry au, 
 
        Potential amp.        0.1517 Ry
        Total length         54.7040 bohr
 

     total cpu time spent up to now is    11880.7 secs

     total energy              =   -6709.77016383 Ry
     estimated scf accuracy    <       4.30399376 Ry

     iteration # 32     ecut=    62.47 Ry     beta= 0.15
     Davidson diagonalization with overlap
     ethr =  4.51E-04,  avg # of iterations =  1.0

     negative rho (up, down):  8.406E-02 0.000E+00
 
     Adding external electric field

     Computed dipole along edir(3) : 
        Dipole               -1.1277 Ry au,         -2.8664 Debye
        Dipole field         -0.0013 Ry au, 
 
        Potential amp.        0.1400 Ry
        Total length         54.7040 bohr
 

     total cpu time spent up to now is    12248.8 secs

     total energy              =   -6709.76814305 Ry
     estimated scf accuracy    <       1.21462822 Ry

     iteration # 33     ecut=    62.47 Ry     beta= 0.15
     Davidson diagonalization with overlap
     ethr =  2.06E-04,  avg # of iterations =  1.0

     negative rho (up, down):  7.079E-02 0.000E+00
 
     Adding external electric field

     Computed dipole along edir(3) : 
        Dipole               -1.0029 Ry au,         -2.5492 Debye
        Dipole field         -0.0011 Ry au, 
 
        Potential amp.        0.1245 Ry
        Total length         54.7040 bohr
 

     total cpu time spent up to now is    12629.8 secs

     total energy              =   -6709.76298422 Ry
     estimated scf accuracy    <       0.35942263 Ry

     iteration # 34     ecut=    62.47 Ry     beta= 0.15
     Davidson diagonalization with overlap
     ethr =  6.09E-05,  avg # of iterations =  5.0

     negative rho (up, down):  6.402E-02 0.000E+00
 
     Adding external electric field

     Computed dipole along edir(3) : 
        Dipole               -0.9264 Ry au,         -2.3545 Debye
        Dipole field         -0.0011 Ry au, 
 
        Potential amp.        0.1150 Ry
        Total length         54.7040 bohr
 

     total cpu time spent up to now is    13083.4 secs

     total energy              =   -6709.76107282 Ry
     estimated scf accuracy    <       0.25101386 Ry

     iteration # 35     ecut=    62.47 Ry     beta= 0.15
     Davidson diagonalization with overlap
     ethr =  4.25E-05,  avg # of iterations =  2.9

     negative rho (up, down):  4.611E-02 0.000E+00
 
     Adding external electric field

     Computed dipole along edir(3) : 
        Dipole               -0.7271 Ry au,         -1.8482 Debye
        Dipole field         -0.0008 Ry au, 
 
        Potential amp.        0.0903 Ry
        Total length         54.7040 bohr
 

     total cpu time spent up to now is    13502.6 secs

     total energy              =   -6709.75748715 Ry
     estimated scf accuracy    <       0.46792959 Ry

     iteration # 36     ecut=    62.47 Ry     beta= 0.15
     Davidson diagonalization with overlap
     ethr =  4.25E-05,  avg # of iterations =  2.6

     negative rho (up, down):  4.310E-02 0.000E+00
 
     Adding external electric field

     Computed dipole along edir(3) : 
        Dipole               -0.6985 Ry au,         -1.7755 Debye
        Dipole field         -0.0008 Ry au, 
 
        Potential amp.        0.0867 Ry
        Total length         54.7040 bohr
 

     total cpu time spent up to now is    13914.2 secs

     total energy              =   -6709.75780826 Ry
     estimated scf accuracy    <       0.73235348 Ry

     iteration # 37     ecut=    62.47 Ry     beta= 0.15
     Davidson diagonalization with overlap
     ethr =  4.25E-05,  avg # of iterations =  1.0

     negative rho (up, down):  4.357E-02 0.000E+00
 
     Adding external electric field

     Computed dipole along edir(3) : 
        Dipole               -0.7205 Ry au,         -1.8313 Debye
        Dipole field         -0.0008 Ry au, 
 
        Potential amp.        0.0895 Ry
        Total length         54.7040 bohr
 

     total cpu time spent up to now is    14296.4 secs

     total energy              =   -6709.75781057 Ry
     estimated scf accuracy    <       1.06164809 Ry

     iteration # 38     ecut=    62.47 Ry     beta= 0.15
     Davidson diagonalization with overlap
     ethr =  4.25E-05,  avg # of iterations =  1.2

     negative rho (up, down):  4.403E-02 0.000E+00
 
     Adding external electric field

     Computed dipole along edir(3) : 
        Dipole               -0.7248 Ry au,         -1.8423 Debye
        Dipole field         -0.0008 Ry au, 
 
        Potential amp.        0.0900 Ry
        Total length         54.7040 bohr
 

     total cpu time spent up to now is    14688.1 secs

     total energy              =   -6709.75852693 Ry
     estimated scf accuracy    <       0.50446780 Ry

     iteration # 39     ecut=    62.47 Ry     beta= 0.15
     Davidson diagonalization with overlap
     ethr =  4.25E-05,  avg # of iterations =  1.1

     negative rho (up, down):  4.439E-02 0.000E+00
 
     Adding external electric field

     Computed dipole along edir(3) : 
        Dipole               -0.7426 Ry au,         -1.8876 Debye
        Dipole field         -0.0008 Ry au, 
 
        Potential amp.        0.0922 Ry
        Total length         54.7040 bohr
 

     total cpu time spent up to now is    15076.9 secs

     total energy              =   -6709.75751112 Ry
     estimated scf accuracy    <       0.93497969 Ry

     iteration # 40     ecut=    62.47 Ry     beta= 0.15
     Davidson diagonalization with overlap
     ethr =  4.25E-05,  avg # of iterations =  1.2

     negative rho (up, down):  6.467E-02 0.000E+00
 
     Adding external electric field

     Computed dipole along edir(3) : 
        Dipole               -0.8941 Ry au,         -2.2725 Debye
        Dipole field         -0.0010 Ry au, 
 
        Potential amp.        0.1110 Ry
        Total length         54.7040 bohr
 

     total cpu time spent up to now is    15459.6 secs

     total energy              =   -6709.76338107 Ry
     estimated scf accuracy    <       0.54441356 Ry

     iteration # 41     ecut=    62.47 Ry     beta= 0.15
     Davidson diagonalization with overlap
     ethr =  4.25E-05,  avg # of iterations =  1.0

     negative rho (up, down):  3.214E-02 0.000E+00
 
     Adding external electric field

     Computed dipole along edir(3) : 
        Dipole               -0.6130 Ry au,         -1.5581 Debye
        Dipole field         -0.0007 Ry au, 
 
        Potential amp.        0.0761 Ry
        Total length         54.7040 bohr
 

     total cpu time spent up to now is    15835.7 secs

     total energy              =   -6709.75600458 Ry
     estimated scf accuracy    <       1.37410765 Ry

     iteration # 42     ecut=    62.47 Ry     beta= 0.15
     Davidson diagonalization with overlap
     ethr =  4.25E-05,  avg # of iterations =  1.0

     negative rho (up, down):  2.056E-02 0.000E+00
 
     Adding external electric field

     Computed dipole along edir(3) : 
        Dipole               -0.5073 Ry au,         -1.2893 Debye
        Dipole field         -0.0006 Ry au, 
 
        Potential amp.        0.0630 Ry
        Total length         54.7040 bohr
 

     total cpu time spent up to now is    16251.7 secs

     total energy              =   -6709.75297464 Ry
     estimated scf accuracy    <       0.47342926 Ry

     iteration # 43     ecut=    62.47 Ry     beta= 0.15
     Davidson diagonalization with overlap
     ethr =  4.25E-05,  avg # of iterations =  1.0

     negative rho (up, down):  4.575E-03 0.000E+00
 
     Adding external electric field

     Computed dipole along edir(3) : 
        Dipole               -0.2988 Ry au,         -0.7595 Debye
        Dipole field         -0.0003 Ry au, 
 
        Potential amp.        0.0371 Ry
        Total length         54.7040 bohr
 

     total cpu time spent up to now is    16647.4 secs

     total energy              =   -6709.75241501 Ry
     estimated scf accuracy    <       0.12575302 Ry

     iteration # 44     ecut=    62.47 Ry     beta= 0.15
     Davidson diagonalization with overlap
     ethr =  2.13E-05,  avg # of iterations =  2.6

     negative rho (up, down):  4.703E-03 0.000E+00
 
     Adding external electric field

     Computed dipole along edir(3) : 
        Dipole               -0.2991 Ry au,         -0.7603 Debye
        Dipole field         -0.0003 Ry au, 
 
        Potential amp.        0.0371 Ry
        Total length         54.7040 bohr
 

     total cpu time spent up to now is    17063.0 secs

     total energy              =   -6709.75149735 Ry
     estimated scf accuracy    <       0.04624368 Ry

     iteration # 45     ecut=    62.47 Ry     beta= 0.15
     Davidson diagonalization with overlap
     c_bands:  1 eigenvalues not converged
     ethr =  7.84E-06,  avg # of iterations =  5.8

     negative rho (up, down):  7.514E-04 0.000E+00
 
     Adding external electric field

     Computed dipole along edir(3) : 
        Dipole               -0.2398 Ry au,         -0.6094 Debye
        Dipole field         -0.0003 Ry au, 
 
        Potential amp.        0.0298 Ry
        Total length         54.7040 bohr
 

     total cpu time spent up to now is    17509.6 secs

     total energy              =   -6709.75181753 Ry
     estimated scf accuracy    <       0.06940130 Ry

     iteration # 46     ecut=    62.47 Ry     beta= 0.15
     Davidson diagonalization with overlap
     ethr =  7.84E-06,  avg # of iterations =  1.0

     negative rho (up, down):  1.962E-03 0.000E+00
 
     Adding external electric field

     Computed dipole along edir(3) : 
        Dipole               -0.2758 Ry au,         -0.7010 Debye
        Dipole field         -0.0003 Ry au, 
 
        Potential amp.        0.0342 Ry
        Total length         54.7040 bohr
 

     total cpu time spent up to now is    17905.3 secs

     total energy              =   -6709.75186560 Ry
     estimated scf accuracy    <       0.00682605 Ry

     iteration # 47     ecut=    62.47 Ry     beta= 0.15
     Davidson diagonalization with overlap
     c_bands:  1 eigenvalues not converged
     c_bands:  1 eigenvalues not converged
     c_bands:  2 eigenvalues not converged
     ethr =  1.16E-06,  avg # of iterations =  6.3

     negative rho (up, down):  2.012E-03 0.000E+00
 
     Adding external electric field

     Computed dipole along edir(3) : 
        Dipole               -0.2753 Ry au,         -0.6998 Debye
        Dipole field         -0.0003 Ry au, 
 
        Potential amp.        0.0342 Ry
        Total length         54.7040 bohr
 

     total cpu time spent up to now is    18395.4 secs

     total energy              =   -6709.75191460 Ry
     estimated scf accuracy    <       0.05723613 Ry

     iteration # 48     ecut=    62.47 Ry     beta= 0.15
     Davidson diagonalization with overlap
     ethr =  1.16E-06,  avg # of iterations =  1.4

     negative rho (up, down):  2.034E-04 0.000E+00
 
     Adding external electric field

     Computed dipole along edir(3) : 
        Dipole               -0.2095 Ry au,         -0.5324 Debye
        Dipole field         -0.0002 Ry au, 
 
        Potential amp.        0.0260 Ry
        Total length         54.7040 bohr
 

     total cpu time spent up to now is    18797.3 secs

     total energy              =   -6709.75174735 Ry
     estimated scf accuracy    <       0.05075086 Ry

     iteration # 49     ecut=    62.47 Ry     beta= 0.15
     Davidson diagonalization with overlap
     ethr =  1.16E-06,  avg # of iterations =  1.1

     negative rho (up, down):  1.079E-04 0.000E+00
 
     Adding external electric field

     Computed dipole along edir(3) : 
        Dipole               -0.1706 Ry au,         -0.4337 Debye
        Dipole field         -0.0002 Ry au, 
 
        Potential amp.        0.0212 Ry
        Total length         54.7040 bohr
 

     total cpu time spent up to now is    19195.7 secs

     total energy              =   -6709.75182120 Ry
     estimated scf accuracy    <       0.00451554 Ry

     iteration # 50     ecut=    62.47 Ry     beta= 0.15
     Davidson diagonalization with overlap
     ethr =  7.65E-07,  avg # of iterations =  1.0

     negative rho (up, down):  1.533E-04 0.000E+00
 
     Adding external electric field

     Computed dipole along edir(3) : 
        Dipole               -0.2000 Ry au,         -0.5084 Debye
        Dipole field         -0.0002 Ry au, 
 
        Potential amp.        0.0248 Ry
        Total length         54.7040 bohr
 

     total cpu time spent up to now is    19589.9 secs

     total energy              =   -6709.75168311 Ry
     estimated scf accuracy    <       0.02958508 Ry

     iteration # 51     ecut=    62.47 Ry     beta= 0.15
     Davidson diagonalization with overlap
     ethr =  7.65E-07,  avg # of iterations =  1.0

     negative rho (up, down):  1.862E-04 0.000E+00
 
     Adding external electric field

     Computed dipole along edir(3) : 
        Dipole               -0.2046 Ry au,         -0.5199 Debye
        Dipole field         -0.0002 Ry au, 
 
        Potential amp.        0.0254 Ry
        Total length         54.7040 bohr
 

     total cpu time spent up to now is    20014.4 secs

     total energy              =   -6709.75173479 Ry
     estimated scf accuracy    <       0.00841322 Ry

     iteration # 52     ecut=    62.47 Ry     beta= 0.15
     Davidson diagonalization with overlap
     ethr =  7.65E-07,  avg # of iterations =  1.0

     negative rho (up, down):  2.310E-04 0.000E+00
 
     Adding external electric field

     Computed dipole along edir(3) : 
        Dipole               -0.1982 Ry au,         -0.5038 Debye
        Dipole field         -0.0002 Ry au, 
 
        Potential amp.        0.0246 Ry
        Total length         54.7040 bohr
 

     total cpu time spent up to now is    20425.2 secs

     total energy              =   -6709.75171824 Ry
     estimated scf accuracy    <       0.00407090 Ry

     iteration # 53     ecut=    62.47 Ry     beta= 0.15
     Davidson diagonalization with overlap
     ethr =  6.90E-07,  avg # of iterations =  1.0

     negative rho (up, down):  2.804E-04 0.000E+00
 
     Adding external electric field

     Computed dipole along edir(3) : 
        Dipole               -0.1982 Ry au,         -0.5038 Debye
        Dipole field         -0.0002 Ry au, 
 
        Potential amp.        0.0246 Ry
        Total length         54.7040 bohr
 

     total cpu time spent up to now is    20814.3 secs

     total energy              =   -6709.75171743 Ry
     estimated scf accuracy    <       0.00204917 Ry

     iteration # 54     ecut=    62.47 Ry     beta= 0.15
     Davidson diagonalization with overlap
     ethr =  3.47E-07,  avg # of iterations =  1.0

     negative rho (up, down):  3.407E-04 0.000E+00
 
     Adding external electric field

     Computed dipole along edir(3) : 
        Dipole               -0.2039 Ry au,         -0.5182 Debye
        Dipole field         -0.0002 Ry au, 
 
        Potential amp.        0.0253 Ry
        Total length         54.7040 bohr
 

     total cpu time spent up to now is    21230.9 secs

     total energy              =   -6709.75171755 Ry
     estimated scf accuracy    <       0.00147386 Ry

     iteration # 55     ecut=    62.47 Ry     beta= 0.15
     Davidson diagonalization with overlap
     ethr =  2.50E-07,  avg # of iterations =  1.0

     negative rho (up, down):  4.904E-04 0.000E+00
 
     Adding external electric field

     Computed dipole along edir(3) : 
        Dipole               -0.2129 Ry au,         -0.5411 Debye
        Dipole field         -0.0002 Ry au, 
 
        Potential amp.        0.0264 Ry
        Total length         54.7040 bohr
 

     total cpu time spent up to now is    21683.5 secs

     total energy              =   -6709.75171125 Ry
     estimated scf accuracy    <       0.00158387 Ry

     iteration # 56     ecut=    62.47 Ry     beta= 0.15
     Davidson diagonalization with overlap
     ethr =  2.50E-07,  avg # of iterations =  1.0

     negative rho (up, down):  4.513E-04 0.000E+00
 
     Adding external electric field

     Computed dipole along edir(3) : 
        Dipole               -0.2162 Ry au,         -0.5494 Debye
        Dipole field         -0.0002 Ry au, 
 
        Potential amp.        0.0268 Ry
        Total length         54.7040 bohr
 

     total cpu time spent up to now is    22082.1 secs

     total energy              =   -6709.75170814 Ry
     estimated scf accuracy    <       0.00118708 Ry

     iteration # 57     ecut=    62.47 Ry     beta= 0.15
     Davidson diagonalization with overlap
     ethr =  2.01E-07,  avg # of iterations =  1.0

     negative rho (up, down):  7.128E-04 0.000E+00
 
     Adding external electric field

     Computed dipole along edir(3) : 
        Dipole               -0.2343 Ry au,         -0.5955 Debye
        Dipole field         -0.0003 Ry au, 
 
        Potential amp.        0.0291 Ry
        Total length         54.7040 bohr
 

     total cpu time spent up to now is    22506.9 secs

     total energy              =   -6709.75170446 Ry
     estimated scf accuracy    <       0.00104419 Ry

     iteration # 58     ecut=    62.47 Ry     beta= 0.15
     Davidson diagonalization with overlap
     ethr =  1.77E-07,  avg # of iterations =  1.0

     negative rho (up, down):  7.577E-04 0.000E+00
 
     Adding external electric field

     Computed dipole along edir(3) : 
        Dipole               -0.2363 Ry au,         -0.6006 Debye
        Dipole field         -0.0003 Ry au, 
 
        Potential amp.        0.0293 Ry
        Total length         54.7040 bohr
 

     total cpu time spent up to now is    22933.4 secs

     total energy              =   -6709.75170636 Ry
     estimated scf accuracy    <       0.00009272 Ry

     iteration # 59     ecut=    62.47 Ry     beta= 0.15
     Davidson diagonalization with overlap
     ethr =  1.57E-08,  avg # of iterations =  1.0

     negative rho (up, down):  7.236E-04 0.000E+00
 
     Adding external electric field

     Computed dipole along edir(3) : 
        Dipole               -0.2337 Ry au,         -0.5941 Debye
        Dipole field         -0.0003 Ry au, 
 
        Potential amp.        0.0290 Ry
        Total length         54.7040 bohr
 

     total cpu time spent up to now is    23339.1 secs

     total energy              =   -6709.75170560 Ry
     estimated scf accuracy    <       0.00015480 Ry

     iteration # 60     ecut=    62.47 Ry     beta= 0.15
     Davidson diagonalization with overlap
     ethr =  1.57E-08,  avg # of iterations =  1.0

     negative rho (up, down):  7.969E-04 0.000E+00
 
     Adding external electric field

     Computed dipole along edir(3) : 
        Dipole               -0.2359 Ry au,         -0.5995 Debye
        Dipole field         -0.0003 Ry au, 
 
        Potential amp.        0.0293 Ry
        Total length         54.7040 bohr
 

     total cpu time spent up to now is    23754.2 secs

     total energy              =   -6709.75170619 Ry
     estimated scf accuracy    <       0.00007711 Ry

     iteration # 61     ecut=    62.47 Ry     beta= 0.15
     Davidson diagonalization with overlap
     ethr =  1.31E-08,  avg # of iterations =  1.0

     negative rho (up, down):  8.838E-04 0.000E+00
 
     Adding external electric field

     Computed dipole along edir(3) : 
        Dipole               -0.2346 Ry au,         -0.5963 Debye
        Dipole field         -0.0003 Ry au, 
 
        Potential amp.        0.0291 Ry
        Total length         54.7040 bohr
 

     total cpu time spent up to now is    24220.3 secs

     total energy              =   -6709.75170434 Ry
     estimated scf accuracy    <       0.00003207 Ry

     iteration # 62     ecut=    62.47 Ry     beta= 0.15
     Davidson diagonalization with overlap
     ethr =  5.44E-09,  avg # of iterations =  1.1

     negative rho (up, down):  8.983E-04 0.000E+00
 
     Adding external electric field

     Computed dipole along edir(3) : 
        Dipole               -0.2333 Ry au,         -0.5929 Debye
        Dipole field         -0.0003 Ry au, 
 
        Potential amp.        0.0290 Ry
        Total length         54.7040 bohr
 

     total cpu time spent up to now is    24629.3 secs

     total energy              =   -6709.75170357 Ry
     estimated scf accuracy    <       0.00003981 Ry

     iteration # 63     ecut=    62.47 Ry     beta= 0.15
     Davidson diagonalization with overlap
     ethr =  5.44E-09,  avg # of iterations =  1.0

     negative rho (up, down):  9.842E-04 0.000E+00
 
     Adding external electric field

     Computed dipole along edir(3) : 
        Dipole               -0.2344 Ry au,         -0.5959 Debye
        Dipole field         -0.0003 Ry au, 
 
        Potential amp.        0.0291 Ry
        Total length         54.7040 bohr
 

     total cpu time spent up to now is    25064.0 secs

     total energy              =   -6709.75170315 Ry
     estimated scf accuracy    <       0.00002409 Ry

     iteration # 64     ecut=    62.47 Ry     beta= 0.15
     Davidson diagonalization with overlap
     ethr =  4.08E-09,  avg # of iterations =  1.0

     negative rho (up, down):  9.853E-04 0.000E+00
 
     Adding external electric field

     Computed dipole along edir(3) : 
        Dipole               -0.2343 Ry au,         -0.5954 Debye
        Dipole field         -0.0003 Ry au, 
 
        Potential amp.        0.0291 Ry
        Total length         54.7040 bohr
 

     total cpu time spent up to now is    25454.5 secs

     total energy              =   -6709.75170313 Ry
     estimated scf accuracy    <       0.00001726 Ry

     iteration # 65     ecut=    62.47 Ry     beta= 0.15
     Davidson diagonalization with overlap
     ethr =  2.93E-09,  avg # of iterations =  1.0

     negative rho (up, down):  1.021E-03 0.000E+00
 
     Adding external electric field

     Computed dipole along edir(3) : 
        Dipole               -0.2342 Ry au,         -0.5953 Debye
        Dipole field         -0.0003 Ry au, 
 
        Potential amp.        0.0291 Ry
        Total length         54.7040 bohr
 

     total cpu time spent up to now is    25831.1 secs

     total energy              =   -6709.75170292 Ry
     estimated scf accuracy    <       0.00001190 Ry

     iteration # 66     ecut=    62.47 Ry     beta= 0.15
     Davidson diagonalization with overlap
     ethr =  2.02E-09,  avg # of iterations =  1.0

     negative rho (up, down):  1.055E-03 0.000E+00
 
     Adding external electric field

     Computed dipole along edir(3) : 
        Dipole               -0.2343 Ry au,         -0.5957 Debye
        Dipole field         -0.0003 Ry au, 
 
        Potential amp.        0.0291 Ry
        Total length         54.7040 bohr
 

     total cpu time spent up to now is    26232.8 secs

     total energy              =   -6709.75170277 Ry
     estimated scf accuracy    <       0.00001237 Ry

     iteration # 67     ecut=    62.47 Ry     beta= 0.15
     Davidson diagonalization with overlap
     ethr =  2.02E-09,  avg # of iterations =  1.0

     negative rho (up, down):  1.143E-03 0.000E+00
 
     Adding external electric field

     Computed dipole along edir(3) : 
        Dipole               -0.2357 Ry au,         -0.5990 Debye
        Dipole field         -0.0003 Ry au, 
 
        Potential amp.        0.0293 Ry
        Total length         54.7040 bohr
 

     total cpu time spent up to now is    26608.3 secs

     total energy              =   -6709.75170229 Ry
     estimated scf accuracy    <       0.00000636 Ry

     iteration # 68     ecut=    62.47 Ry     beta= 0.15
     Davidson diagonalization with overlap
     ethr =  1.08E-09,  avg # of iterations =  1.0

     negative rho (up, down):  1.131E-03 0.000E+00
 
     Adding external electric field

     Computed dipole along edir(3) : 
        Dipole               -0.2350 Ry au,         -0.5972 Debye
        Dipole field         -0.0003 Ry au, 
 
        Potential amp.        0.0292 Ry
        Total length         54.7040 bohr
 

     total cpu time spent up to now is    27030.4 secs

     total energy              =   -6709.75170250 Ry
     estimated scf accuracy    <       0.00001113 Ry

     iteration # 69     ecut=    62.47 Ry     beta= 0.15
     Davidson diagonalization with overlap
     ethr =  1.08E-09,  avg # of iterations =  1.0

     negative rho (up, down):  1.138E-03 0.000E+00
 
     Adding external electric field

     Computed dipole along edir(3) : 
        Dipole               -0.2352 Ry au,         -0.5977 Debye
        Dipole field         -0.0003 Ry au, 
 
        Potential amp.        0.0292 Ry
        Total length         54.7040 bohr
 

     total cpu time spent up to now is    27442.4 secs

     total energy              =   -6709.75170248 Ry
     estimated scf accuracy    <       0.00000635 Ry

     iteration # 70     ecut=    62.47 Ry     beta= 0.15
     Davidson diagonalization with overlap
     ethr =  1.08E-09,  avg # of iterations =  1.0

     negative rho (up, down):  1.156E-03 0.000E+00
 
     Adding external electric field

     Computed dipole along edir(3) : 
        Dipole               -0.2354 Ry au,         -0.5982 Debye
        Dipole field         -0.0003 Ry au, 
 
        Potential amp.        0.0292 Ry
        Total length         54.7040 bohr
 

     total cpu time spent up to now is    27819.5 secs

     total energy              =   -6709.75170244 Ry
     estimated scf accuracy    <       0.00001159 Ry

     iteration # 71     ecut=    62.47 Ry     beta= 0.15
     Davidson diagonalization with overlap
     ethr =  1.08E-09,  avg # of iterations =  1.0

     negative rho (up, down):  1.141E-03 0.000E+00
 
     Adding external electric field

     Computed dipole along edir(3) : 
        Dipole               -0.2353 Ry au,         -0.5980 Debye
        Dipole field         -0.0003 Ry au, 
 
        Potential amp.        0.0292 Ry
        Total length         54.7040 bohr
 

     total cpu time spent up to now is    28226.9 secs

     total energy              =   -6709.75170248 Ry
     estimated scf accuracy    <       0.00002842 Ry

     iteration # 72     ecut=    62.47 Ry     beta= 0.15
     Davidson diagonalization with overlap
     ethr =  1.08E-09,  avg # of iterations =  1.0

     negative rho (up, down):  1.162E-03 0.000E+00
 
     Adding external electric field

     Computed dipole along edir(3) : 
        Dipole               -0.2352 Ry au,         -0.5979 Debye
        Dipole field         -0.0003 Ry au, 
 
        Potential amp.        0.0292 Ry
        Total length         54.7040 bohr
 

     total cpu time spent up to now is    28608.8 secs

     total energy              =   -6709.75170247 Ry
     estimated scf accuracy    <       0.00002002 Ry

     iteration # 73     ecut=    62.47 Ry     beta= 0.15
     Davidson diagonalization with overlap
     ethr =  1.08E-09,  avg # of iterations =  1.0

     negative rho (up, down):  1.191E-03 0.000E+00
 
     Adding external electric field

     Computed dipole along edir(3) : 
        Dipole               -0.2360 Ry au,         -0.5998 Debye
        Dipole field         -0.0003 Ry au, 
 
        Potential amp.        0.0293 Ry
        Total length         54.7040 bohr
 

     total cpu time spent up to now is    29032.5 secs

     total energy              =   -6709.75170234 Ry
     estimated scf accuracy    <       0.00000673 Ry

     iteration # 74     ecut=    62.47 Ry     beta= 0.15
     Davidson diagonalization with overlap
     ethr =  1.08E-09,  avg # of iterations =  1.0

     negative rho (up, down):  1.286E-03 0.000E+00
 
     Adding external electric field

     Computed dipole along edir(3) : 
        Dipole               -0.2365 Ry au,         -0.6012 Debye
        Dipole field         -0.0003 Ry au, 
 
        Potential amp.        0.0294 Ry
        Total length         54.7040 bohr
 

     total cpu time spent up to now is    29394.6 secs

     total energy              =   -6709.75170212 Ry
     estimated scf accuracy    <       0.00000736 Ry

     iteration # 75     ecut=    62.47 Ry     beta= 0.15
     Davidson diagonalization with overlap
     ethr =  1.08E-09,  avg # of iterations =  1.0

     negative rho (up, down):  1.315E-03 0.000E+00
 
     Adding external electric field

     Computed dipole along edir(3) : 
        Dipole               -0.2372 Ry au,         -0.6028 Debye
        Dipole field         -0.0003 Ry au, 
 
        Potential amp.        0.0295 Ry
        Total length         54.7040 bohr
 

     total cpu time spent up to now is    29784.6 secs

     total energy              =   -6709.75170201 Ry
     estimated scf accuracy    <       0.00000429 Ry

     iteration # 76     ecut=    62.47 Ry     beta= 0.15
     Davidson diagonalization with overlap
     ethr =  7.28E-10,  avg # of iterations =  1.0

     negative rho (up, down):  1.391E-03 0.000E+00
 
     Adding external electric field

     Computed dipole along edir(3) : 
        Dipole               -0.2378 Ry au,         -0.6044 Debye
        Dipole field         -0.0003 Ry au, 
 
        Potential amp.        0.0295 Ry
        Total length         54.7040 bohr
 

     total cpu time spent up to now is    30222.9 secs

     total energy              =   -6709.75170188 Ry
     estimated scf accuracy    <       0.00001109 Ry

     iteration # 77     ecut=    62.47 Ry     beta= 0.15
     Davidson diagonalization with overlap
     ethr =  7.28E-10,  avg # of iterations =  1.0

     negative rho (up, down):  1.488E-03 0.000E+00
 
     Adding external electric field

     Computed dipole along edir(3) : 
        Dipole               -0.2386 Ry au,         -0.6064 Debye
        Dipole field         -0.0003 Ry au, 
 
        Potential amp.        0.0296 Ry
        Total length         54.7040 bohr
 

     total cpu time spent up to now is    30627.6 secs

     total energy              =   -6709.75170172 Ry
     estimated scf accuracy    <       0.00000906 Ry

     iteration # 78     ecut=    62.47 Ry     beta= 0.15
     Davidson diagonalization with overlap
     ethr =  7.28E-10,  avg # of iterations =  1.0

     negative rho (up, down):  1.489E-03 0.000E+00
 
     Adding external electric field

     Computed dipole along edir(3) : 
        Dipole               -0.2381 Ry au,         -0.6053 Debye
        Dipole field         -0.0003 Ry au, 
 
        Potential amp.        0.0296 Ry
        Total length         54.7040 bohr
 

     total cpu time spent up to now is    31025.9 secs

     total energy              =   -6709.75170161 Ry
     estimated scf accuracy    <       0.00001999 Ry

     iteration # 79     ecut=    62.47 Ry     beta= 0.15
     Davidson diagonalization with overlap
     ethr =  7.28E-10,  avg # of iterations =  1.0

     negative rho (up, down):  1.521E-03 0.000E+00
 
     Adding external electric field

     Computed dipole along edir(3) : 
        Dipole               -0.2382 Ry au,         -0.6055 Debye
        Dipole field         -0.0003 Ry au, 
 
        Potential amp.        0.0296 Ry
        Total length         54.7040 bohr
 

     total cpu time spent up to now is    31420.9 secs

     total energy              =   -6709.75170156 Ry
     estimated scf accuracy    <       0.00000508 Ry

     iteration # 80     ecut=    62.47 Ry     beta= 0.15
     Davidson diagonalization with overlap
     ethr =  7.28E-10,  avg # of iterations =  1.0

     negative rho (up, down):  1.577E-03 0.000E+00
 
     Adding external electric field

     Computed dipole along edir(3) : 
        Dipole               -0.2387 Ry au,         -0.6067 Debye
        Dipole field         -0.0003 Ry au, 
 
        Potential amp.        0.0296 Ry
        Total length         54.7040 bohr
 

     total cpu time spent up to now is    31846.2 secs

     total energy              =   -6709.75170154 Ry
     estimated scf accuracy    <       0.00000328 Ry

     iteration # 81     ecut=    62.47 Ry     beta= 0.15
     Davidson diagonalization with overlap
     ethr =  5.56E-10,  avg # of iterations =  1.0

     negative rho (up, down):  1.585E-03 0.000E+00
 
     Adding external electric field

     Computed dipole along edir(3) : 
        Dipole               -0.2384 Ry au,         -0.6060 Debye
        Dipole field         -0.0003 Ry au, 
 
        Potential amp.        0.0296 Ry
        Total length         54.7040 bohr
 

     total cpu time spent up to now is    32288.8 secs

     total energy              =   -6709.75170149 Ry
     estimated scf accuracy    <       0.00000334 Ry

     iteration # 82     ecut=    62.47 Ry     beta= 0.15
     Davidson diagonalization with overlap
     ethr =  5.56E-10,  avg # of iterations =  1.0

     negative rho (up, down):  1.612E-03 0.000E+00
 
     Adding external electric field

     Computed dipole along edir(3) : 
        Dipole               -0.2384 Ry au,         -0.6059 Debye
        Dipole field         -0.0003 Ry au, 
 
        Potential amp.        0.0296 Ry
        Total length         54.7040 bohr
 

     total cpu time spent up to now is    32704.4 secs

     total energy              =   -6709.75170146 Ry
     estimated scf accuracy    <       0.00000232 Ry

     iteration # 83     ecut=    62.47 Ry     beta= 0.15
     Davidson diagonalization with overlap
     ethr =  3.93E-10,  avg # of iterations =  1.0

     negative rho (up, down):  1.688E-03 0.000E+00
 
     Adding external electric field

     Computed dipole along edir(3) : 
        Dipole               -0.2384 Ry au,         -0.6060 Debye
        Dipole field         -0.0003 Ry au, 
 
        Potential amp.        0.0296 Ry
        Total length         54.7040 bohr
 

     total cpu time spent up to now is    33149.3 secs

     total energy              =   -6709.75170139 Ry
     estimated scf accuracy    <       0.00000175 Ry

     iteration # 84     ecut=    62.47 Ry     beta= 0.15
     Davidson diagonalization with overlap
     ethr =  2.97E-10,  avg # of iterations =  1.0

     negative rho (up, down):  1.741E-03 0.000E+00
 
     Adding external electric field

     Computed dipole along edir(3) : 
        Dipole               -0.2387 Ry au,         -0.6066 Debye
        Dipole field         -0.0003 Ry au, 
 
        Potential amp.        0.0296 Ry
        Total length         54.7040 bohr
 

     total cpu time spent up to now is    33566.4 secs

     total energy              =   -6709.75170135 Ry
     estimated scf accuracy    <       0.00000147 Ry

     iteration # 85     ecut=    62.47 Ry     beta= 0.15
     Davidson diagonalization with overlap
     ethr =  2.50E-10,  avg # of iterations =  1.0

     negative rho (up, down):  1.714E-03 0.000E+00
 
     Adding external electric field

     Computed dipole along edir(3) : 
        Dipole               -0.2386 Ry au,         -0.6064 Debye
        Dipole field         -0.0003 Ry au, 
 
        Potential amp.        0.0296 Ry
        Total length         54.7040 bohr
 

     total cpu time spent up to now is    33995.0 secs

     total energy              =   -6709.75170136 Ry
     estimated scf accuracy    <       0.00000153 Ry

     iteration # 86     ecut=    62.47 Ry     beta= 0.15
     Davidson diagonalization with overlap
     ethr =  2.50E-10,  avg # of iterations =  1.0

     negative rho (up, down):  1.779E-03 0.000E+00
 
     Adding external electric field

     Computed dipole along edir(3) : 
        Dipole               -0.2387 Ry au,         -0.6067 Debye
        Dipole field         -0.0003 Ry au, 
 
        Potential amp.        0.0296 Ry
        Total length         54.7040 bohr
 

     total cpu time spent up to now is    34414.2 secs

     total energy              =   -6709.75170131 Ry
     estimated scf accuracy    <       0.00000104 Ry

     iteration # 87     ecut=    62.47 Ry     beta= 0.15
     Davidson diagonalization with overlap
     ethr =  1.76E-10,  avg # of iterations =  1.0

     negative rho (up, down):  1.836E-03 0.000E+00
 
     Adding external electric field

     Computed dipole along edir(3) : 
        Dipole               -0.2452 Ry au,         -0.6233 Debye
        Dipole field         -0.0003 Ry au, 
 
        Potential amp.        0.0305 Ry
        Total length         54.7040 bohr
 

     total cpu time spent up to now is    34803.6 secs

     End of self-consistent calculation

          k = 0.0000 0.0000 0.0000 ( 92211 PWs)   bands (ev):

   -73.5451 -73.5361 -73.5316 -73.5285 -73.5272 -73.5253 -73.5206 -73.4581
   -73.4309 -73.2933 -42.3427 -42.3394 -42.3390 -42.3333 -42.3314 -42.3258
   -42.3218 -42.3090 -42.3072 -42.3044 -42.2967 -42.2938 -42.2935 -42.2904
   -42.2849 -42.2845 -42.2842 -42.2824 -42.2815 -42.2811 -42.2800 -42.2646
   -42.2512 -42.2413 -42.2162 -42.1864 -42.1621 -42.1105 -42.0955 -42.0588
    -3.9156  -3.3187  -2.5130  -1.7248  -1.6681  -1.6621  -1.3772  -1.3506
    -1.3122  -1.3060  -1.2639  -1.2577  -1.2444  -1.2123  -1.1324  -1.0661
    -1.0631  -1.0413  -1.0150  -0.9476  -0.9140  -0.9062  -0.8469  -0.7896
    -0.7723  -0.7585  -0.7534  -0.7271  -0.7254  -0.7038  -0.6203  -0.5988
    -0.5850  -0.5290  -0.5232  -0.5021  -0.4697  -0.4527  -0.4292  -0.3908
    -0.3818  -0.3651  -0.3448  -0.3126  -0.3034  -0.2763  -0.2530  -0.2208
    -0.2014  -0.1716  -0.1368  -0.0933  -0.0576  -0.0279   0.0012   0.0087
     0.0264   0.0400   0.0643   0.0913   0.1184   0.1544   0.1758   0.2155
     0.2731   0.2903   0.3242   0.3540   0.3553   0.3809   0.3840   0.3862
     0.4010   0.4316   0.4444   0.4482   0.4846   0.5270   0.5378   0.5534
     0.5962   0.6085   0.6484   0.6723   0.6920   0.7169   0.7222   0.7539
     0.7597   0.7671   0.7837   0.8021   0.8176   0.8228   0.8687   0.8884
     0.9058   0.9287   0.9410   0.9583   0.9808   0.9866   1.0037   1.0246
     1.0465   1.0587   1.0680   1.1074   1.1134   1.1303   1.1663   1.1869
     1.1876   1.2047   1.2496   1.2653   1.2759   1.2961   1.3260   1.3468
     1.3651   1.3823   1.4028   1.4240   1.4473   1.4667   1.5024   1.5353
     1.5510   1.5743   1.6099   1.6251   1.6558   1.6580   1.6753   1.7039
     1.7217   1.7375   1.7614   1.7798   1.7851   1.8238   1.8653   1.8794
     1.9149   1.9282   1.9458   1.9793   1.9926   2.0214   2.0393   2.0472
     2.0874   2.1006   2.1128   2.1376   2.1580   2.1819   2.1890   2.2295
     2.2341   2.2451   2.2532   2.2767   2.2984   2.3163   2.3315   2.3640
     2.3665   2.4057   2.4098   2.4328   2.4414   2.4581   2.4722   2.5047
     2.5410   2.5710   2.5768   2.5876   2.6202   2.6564   2.6859   2.7045
     2.7354   2.7571   2.7987   2.8570   2.8816   2.8962   2.9200   2.9579
     2.9646   2.9990   3.0292   3.0633   3.1058   3.1311   3.1873   3.1907
     3.2018   3.2296   3.2535   3.2603   3.2687   3.3193   3.3419   3.3516
     3.3990   3.4230   3.4584   3.4945   3.5421   3.5630   3.6308   3.6540
     3.6903   3.6975   3.7487   3.8527   3.8763   3.9172   3.9461   3.9821
     4.0844   4.1837   4.2588   4.3088   4.3984   4.4456   4.4858   4.6269
     4.7576   4.8088   4.8350   4.9091   4.9443   5.0528   5.1197   5.1580
     5.2252   5.2356   5.2619   5.3113   5.3617   5.3813   5.3847   5.3997
     5.4150   5.4269   5.4338   5.4438   5.4585   5.4707   5.4750   5.4767
     5.4829   5.5047   5.5217   5.5274   5.5454   5.5829   5.5905   5.5937
     5.6015   5.6134   5.6226   5.6484   5.6825   5.7189   5.7259   5.7834
     5.8142   5.8396   5.9104   5.9444   6.0640   6.0881   6.2168   6.3928
     6.4250   6.4931   6.5631   6.7084   6.8161

          k =-0.0849-0.0849 0.0923 ( 92262 PWs)   bands (ev):

   -73.5451 -73.5361 -73.5316 -73.5285 -73.5272 -73.5253 -73.5206 -73.4581
   -73.4309 -73.2933 -42.3427 -42.3394 -42.3390 -42.3333 -42.3314 -42.3258
   -42.3218 -42.3090 -42.3072 -42.3044 -42.2967 -42.2938 -42.2935 -42.2904
   -42.2849 -42.2845 -42.2842 -42.2824 -42.2815 -42.2811 -42.2800 -42.2646
   -42.2512 -42.2413 -42.2162 -42.1864 -42.1621 -42.1105 -42.0955 -42.0588
    -3.8651  -3.2704  -2.4713  -1.8169  -1.7041  -1.5444  -1.4727  -1.4666
    -1.3575  -1.3368  -1.2744  -1.2381  -1.2106  -1.1927  -1.1316  -1.0863
    -1.0487  -1.0168  -0.9856  -0.9347  -0.9160  -0.8896  -0.8648  -0.8389
    -0.8127  -0.7556  -0.7250  -0.7078  -0.6887  -0.6541  -0.6290  -0.6150
    -0.5895  -0.5732  -0.5484  -0.5170  -0.5043  -0.4754  -0.4627  -0.4100
    -0.3916  -0.3589  -0.3421  -0.3268  -0.2826  -0.2494  -0.2271  -0.2034
    -0.1728  -0.1524  -0.1213  -0.0964  -0.0535  -0.0456  -0.0105   0.0037
     0.0132   0.0562   0.0714   0.1057   0.1286   0.1525   0.1922   0.2362
     0.2461   0.2794   0.2967   0.3229   0.3510   0.3685   0.3799   0.3866
     0.4092   0.4294   0.4516   0.4810   0.5038   0.5103   0.5348   0.5511
     0.5733   0.6104   0.6379   0.6503   0.6705   0.6904   0.6951   0.7110
     0.7483   0.7722   0.7947   0.8012   0.8287   0.8456   0.8684   0.8874
     0.9084   0.9186   0.9221   0.9472   0.9674   0.9947   1.0083   1.0294
     1.0418   1.0527   1.0611   1.0932   1.1244   1.1412   1.1488   1.1682
     1.1929   1.2078   1.2128   1.2559   1.2979   1.3101   1.3232   1.3567
     1.3647   1.3962   1.4215   1.4407   1.4676   1.4834   1.5120   1.5366
     1.5380   1.5721   1.6054   1.6142   1.6384   1.6628   1.6716   1.7153
     1.7347   1.7440   1.7707   1.7990   1.8134   1.8427   1.8686   1.8797
     1.8956   1.9337   1.9714   1.9805   1.9935   2.0162   2.0517   2.0621
     2.0710   2.1009   2.1175   2.1373   2.1588   2.1731   2.1912   2.2206
     2.2280   2.2384   2.2588   2.2826   2.2993   2.3171   2.3406   2.3682
     2.3780   2.3891   2.4039   2.4131   2.4374   2.4638   2.4887   2.5021
     2.5229   2.5558   2.5699   2.6006   2.6255   2.6429   2.6692   2.7167
     2.7511   2.7617   2.8127   2.8295   2.8797   2.9142   2.9330   2.9597
     2.9848   3.0082   3.0350   3.0547   3.0894   3.1247   3.1611   3.1713
     3.2026   3.2250   3.2393   3.2632   3.2808   3.3180   3.3283   3.3489
     3.3678   3.4070   3.4368   3.4689   3.5146   3.5691   3.6082   3.6532
     3.6856   3.7222   3.7674   3.8141   3.8710   3.9566   3.9848   4.0642
     4.1122   4.1774   4.3002   4.3305   4.4314   4.5290   4.6117   4.6484
     4.7559   4.8103   4.8718   4.9020   4.9468   5.0520   5.1104   5.1671
     5.2101   5.2257   5.2634   5.3068   5.3175   5.3515   5.3750   5.3849
     5.4001   5.4223   5.4341   5.4434   5.4563   5.4612   5.4688   5.4834
     5.4910   5.5009   5.5085   5.5188   5.5254   5.5380   5.5459   5.5718
     5.5890   5.5996   5.6152   5.6334   5.6643   5.7019   5.7321   5.7886
     5.8424   5.8683   5.9174   5.9574   6.0777   6.2034   6.2197   6.2825
     6.4390   6.6444   6.7246   6.7871   7.0591

          k =-0.1697-0.1697 0.1846 ( 92330 PWs)   bands (ev):

   -73.5451 -73.5361 -73.5316 -73.5285 -73.5272 -73.5253 -73.5206 -73.4581
   -73.4309 -73.2933 -42.3427 -42.3394 -42.3390 -42.3333 -42.3314 -42.3258
   -42.3218 -42.3090 -42.3072 -42.3044 -42.2967 -42.2938 -42.2935 -42.2904
   -42.2849 -42.2845 -42.2842 -42.2824 -42.2815 -42.2811 -42.2800 -42.2646
   -42.2512 -42.2413 -42.2162 -42.1864 -42.1621 -42.1105 -42.0955 -42.0588
    -3.7154  -3.1280  -2.3515  -1.9895  -1.6902  -1.6327  -1.5725  -1.5104
    -1.4248  -1.3989  -1.2795  -1.2418  -1.2156  -1.1567  -1.1184  -1.0896
    -1.0596  -1.0471  -1.0127  -0.9777  -0.9323  -0.8860  -0.8767  -0.8336
    -0.7950  -0.7840  -0.7490  -0.7275  -0.6904  -0.6640  -0.6543  -0.6269
    -0.5950  -0.5722  -0.5639  -0.5371  -0.5009  -0.4896  -0.4617  -0.4354
    -0.4202  -0.3807  -0.3495  -0.3379  -0.2855  -0.2531  -0.2209  -0.1912
    -0.1603  -0.1420  -0.1220  -0.0953  -0.0766  -0.0479  -0.0011   0.0107
     0.0386   0.0615   0.0978   0.1196   0.1474   0.1567   0.1911   0.2158
     0.2390   0.2539   0.2861   0.3051   0.3437   0.3570   0.3644   0.3863
     0.3940   0.4228   0.4467   0.4615   0.4892   0.4970   0.5113   0.5356
     0.5591   0.5830   0.6089   0.6320   0.6505   0.6636   0.6877   0.7180
     0.7482   0.7666   0.7809   0.8090   0.8216   0.8393   0.8563   0.8684
     0.8920   0.9003   0.9282   0.9402   0.9678   0.9844   1.0029   1.0252
     1.0543   1.0638   1.0936   1.1034   1.1298   1.1380   1.1674   1.1805
     1.2101   1.2392   1.2500   1.2711   1.2906   1.3225   1.3622   1.3902
     1.3992   1.4117   1.4555   1.4684   1.4821   1.4964   1.5236   1.5402
     1.5442   1.5773   1.5907   1.6149   1.6405   1.6665   1.6770   1.6992
     1.7220   1.7398   1.7742   1.8174   1.8309   1.8450   1.8556   1.8799
     1.9164   1.9493   1.9578   1.9727   2.0004   2.0270   2.0379   2.0517
     2.0783   2.1059   2.1219   2.1455   2.1588   2.1697   2.2058   2.2129
     2.2379   2.2505   2.2537   2.2904   2.3017   2.3156   2.3282   2.3515
     2.3725   2.3930   2.4086   2.4226   2.4361   2.4615   2.4838   2.5158
     2.5425   2.5602   2.5750   2.6020   2.6309   2.6493   2.6658   2.7234
     2.7515   2.7853   2.7972   2.8331   2.8562   2.8863   2.9258   2.9610
     2.9806   3.0134   3.0271   3.0417   3.0557   3.0708   3.0885   3.1056
     3.1660   3.1892   3.2241   3.2406   3.2683   3.2737   3.2913   3.3193
     3.3429   3.3777   3.3849   3.4406   3.4669   3.5168   3.5770   3.6363
     3.7026   3.7656   3.8274   3.8435   3.9095   4.0130   4.0737   4.1563
     4.2004   4.2808   4.4561   4.5030   4.5864   4.6263   4.6838   4.7215
     4.8276   4.8570   4.9060   4.9414   4.9813   5.0119   5.1159   5.1565
     5.2007   5.2084   5.2197   5.2625   5.2810   5.3095   5.3221   5.3406
     5.3588   5.3650   5.3920   5.4145   5.4306   5.4431   5.4552   5.4713
     5.4858   5.4874   5.5002   5.5056   5.5167   5.5298   5.5364   5.5531
     5.5734   5.5901   5.6043   5.6184   5.6374   5.6678   5.7419   5.7929
     5.8465   5.9322   5.9889   6.0932   6.1989   6.2980   6.3522   6.4383
     6.6979   6.8702   6.9364   6.9938   7.1134

          k =-0.2546-0.2546 0.2769 ( 92388 PWs)   bands (ev):

   -73.5451 -73.5361 -73.5316 -73.5285 -73.5272 -73.5253 -73.5206 -73.4581
   -73.4309 -73.2933 -42.3427 -42.3394 -42.3390 -42.3333 -42.3314 -42.3258
   -42.3218 -42.3090 -42.3072 -42.3044 -42.2967 -42.2938 -42.2935 -42.2904
   -42.2849 -42.2845 -42.2842 -42.2824 -42.2815 -42.2811 -42.2800 -42.2646
   -42.2512 -42.2413 -42.2162 -42.1864 -42.1621 -42.1105 -42.0955 -42.0588
    -3.4728  -2.9001  -2.1893  -2.1409  -1.8971  -1.7692  -1.6349  -1.5178
    -1.4670  -1.4203  -1.3078  -1.2527  -1.1919  -1.1662  -1.1467  -1.1180
    -1.0954  -1.0337  -1.0127  -0.9916  -0.9360  -0.9165  -0.8849  -0.8632
    -0.8440  -0.8074  -0.7906  -0.7548  -0.7312  -0.7025  -0.6761  -0.6498
    -0.6272  -0.5958  -0.5734  -0.5561  -0.5218  -0.5108  -0.4921  -0.4555
    -0.4201  -0.4019  -0.3599  -0.3294  -0.2904  -0.2570  -0.2182  -0.1994
    -0.1861  -0.1607  -0.1368  -0.1146  -0.0768  -0.0350  -0.0271   0.0125
     0.0244   0.0633   0.0854   0.1356   0.1545   0.1700   0.1780   0.2103
     0.2238   0.2443   0.2573   0.2840   0.3156   0.3254   0.3334   0.3660
     0.3772   0.4109   0.4221   0.4492   0.4514   0.4779   0.5023   0.5407
     0.5504   0.5631   0.5984   0.6293   0.6469   0.6731   0.7113   0.7245
     0.7614   0.7658   0.7868   0.8170   0.8423   0.8634   0.8784   0.8980
     0.9059   0.9387   0.9608   0.9698   0.9987   1.0137   1.0333   1.0524
     1.0818   1.1068   1.1238   1.1367   1.1573   1.1879   1.2042   1.2133
     1.2384   1.2538   1.2956   1.3112   1.3265   1.3550   1.3783   1.3976
[...]
     4.2318   4.3345   4.4250   4.4656   4.5342   4.6375   4.6823   4.7444
     4.8127   4.8946   4.9280   5.0056   5.0274   5.0581   5.1095   5.1488
     5.2083   5.2438   5.2670   5.2859   5.3044   5.3183   5.3280   5.3398
     5.3567   5.3640   5.3812   5.3928   5.3992   5.4102   5.4246   5.4372
     5.4472   5.4629   5.4727   5.4896   5.5204   5.5322   5.5586   5.5809
     5.6011   5.6131   5.6439   5.6829   5.6873   5.7305   5.7534   5.7829
     5.8362   5.8625   5.9345   6.1409   6.1866   6.2638   6.3309   6.3694
     6.6594   6.8182   6.8609   6.9360   6.9859

          k =-0.0283-0.7354 0.4154 ( 92342 PWs)   bands (ev):

   -73.5451 -73.5361 -73.5316 -73.5285 -73.5272 -73.5253 -73.5206 -73.4581
   -73.4309 -73.2933 -42.3427 -42.3394 -42.3390 -42.3333 -42.3314 -42.3258
   -42.3218 -42.3090 -42.3072 -42.3044 -42.2967 -42.2938 -42.2935 -42.2904
   -42.2849 -42.2845 -42.2842 -42.2824 -42.2815 -42.2811 -42.2800 -42.2646
   -42.2512 -42.2413 -42.2162 -42.1864 -42.1621 -42.1105 -42.0955 -42.0588
    -3.3725  -2.8107  -2.5137  -2.1805  -2.0875  -2.0247  -1.6964  -1.5101
    -1.4606  -1.3727  -1.3442  -1.2753  -1.2312  -1.1800  -1.0751  -1.0550
    -1.0102  -0.9708  -0.9618  -0.9167  -0.8745  -0.8469  -0.8341  -0.7807
    -0.7680  -0.7535  -0.7273  -0.6975  -0.6632  -0.6520  -0.6185  -0.6090
    -0.5780  -0.5759  -0.5465  -0.5164  -0.5078  -0.4836  -0.4449  -0.4302
    -0.4035  -0.3995  -0.3717  -0.3435  -0.3259  -0.3082  -0.2804  -0.2388
    -0.2176  -0.2015  -0.1869  -0.1575  -0.1497  -0.1033  -0.0807  -0.0644
    -0.0493  -0.0285  -0.0136   0.0208   0.0312   0.0892   0.0964   0.1552
     0.1839   0.2008   0.2278   0.2572   0.2779   0.3153   0.3456   0.3726
     0.3987   0.4059   0.4444   0.4568   0.5177   0.5261   0.5348   0.5668
     0.5750   0.6225   0.6837   0.6971   0.7031   0.7263   0.7408   0.7582
     0.7646   0.7977   0.8194   0.8293   0.8468   0.8674   0.8867   0.9173
     0.9387   0.9525   0.9666   0.9911   1.0224   1.0368   1.0471   1.0703
     1.1010   1.1150   1.1223   1.1448   1.1633   1.1779   1.2025   1.2321
     1.2474   1.2622   1.3013   1.3103   1.3190   1.3369   1.3662   1.3912
     1.4040   1.4345   1.4583   1.4657   1.4848   1.5300   1.5371   1.5514
     1.5629   1.5992   1.6206   1.6348   1.6610   1.6862   1.7042   1.7215
     1.7425   1.7638   1.7765   1.8078   1.8170   1.8424   1.8622   1.8826
     1.9041   1.9218   1.9613   1.9871   2.0093   2.0391   2.0424   2.0572
     2.0814   2.1043   2.1253   2.1398   2.1681   2.1872   2.1918   2.2194
     2.2383   2.2578   2.2688   2.2915   2.3158   2.3443   2.3527   2.3773
     2.3982   2.4092   2.4325   2.4374   2.4642   2.4859   2.5185   2.5295
     2.5475   2.5679   2.5811   2.6059   2.6297   2.6540   2.6807   2.7000
     2.7584   2.7798   2.7902   2.8135   2.8524   2.8703   2.8938   2.9165
     2.9271   2.9395   2.9684   3.0091   3.0168   3.0540   3.0764   3.1017
     3.1223   3.1426   3.1786   3.2124   3.2326   3.2525   3.2832   3.3244
     3.3590   3.3784   3.4485   3.4814   3.5423   3.5819   3.6959   3.7762
     3.8382   3.8989   3.9629   3.9919   4.0302   4.0972   4.1328   4.2223
     4.2620   4.2904   4.4197   4.4529   4.5320   4.5802   4.6484   4.7263
     4.7918   4.8523   4.8985   4.9571   5.0107   5.0424   5.0969   5.1512
     5.1771   5.2274   5.2542   5.2784   5.2919   5.3240   5.3387   5.3518
     5.3620   5.3733   5.3863   5.3905   5.4004   5.4161   5.4250   5.4381
     5.4517   5.4604   5.4636   5.5004   5.5184   5.5418   5.5725   5.5898
     5.6358   5.6610   5.6993   5.7452   5.7790   5.8075   5.8263   5.8607
     5.8997   6.0039   6.0694   6.1876   6.2580   6.2961   6.3918   6.4484
     6.4805   6.5148   6.6433   6.7410   6.7840

          k =-0.1131-0.8202 0.5077 ( 92342 PWs)   bands (ev):

   -73.5451 -73.5361 -73.5316 -73.5285 -73.5272 -73.5253 -73.5206 -73.4581
   -73.4309 -73.2933 -42.3427 -42.3394 -42.3390 -42.3333 -42.3314 -42.3258
   -42.3218 -42.3090 -42.3072 -42.3044 -42.2967 -42.2938 -42.2935 -42.2904
   -42.2849 -42.2845 -42.2842 -42.2824 -42.2815 -42.2811 -42.2800 -42.2646
   -42.2512 -42.2413 -42.2162 -42.1864 -42.1621 -42.1105 -42.0955 -42.0588
    -3.3723  -2.8166  -2.5086  -2.1594  -2.1178  -2.0107  -1.7186  -1.5400
    -1.4887  -1.3786  -1.3174  -1.2482  -1.2280  -1.1757  -1.0998  -1.0551
    -1.0236  -0.9841  -0.9296  -0.8944  -0.8695  -0.8545  -0.8154  -0.7965
    -0.7875  -0.7624  -0.7240  -0.6884  -0.6685  -0.6476  -0.6339  -0.6128
    -0.5851  -0.5665  -0.5402  -0.5235  -0.5107  -0.4835  -0.4578  -0.4398
    -0.4102  -0.3948  -0.3594  -0.3468  -0.3071  -0.2891  -0.2581  -0.2136
    -0.2085  -0.2003  -0.1673  -0.1567  -0.1302  -0.1194  -0.0857  -0.0711
    -0.0443  -0.0178   0.0178   0.0436   0.0547   0.0846   0.1048   0.1355
     0.1680   0.1915   0.2322   0.2600   0.2976   0.3135   0.3374   0.3819
     0.3873   0.3938   0.4140   0.4647   0.4912   0.5270   0.5408   0.5671
     0.5929   0.6137   0.6506   0.6759   0.6874   0.7030   0.7358   0.7713
     0.7791   0.7915   0.8117   0.8298   0.8650   0.8726   0.8901   0.9067
     0.9266   0.9528   0.9839   0.9979   1.0271   1.0384   1.0486   1.0827
     1.0893   1.1017   1.1262   1.1591   1.1682   1.2046   1.2173   1.2347
     1.2542   1.2663   1.2943   1.3006   1.3321   1.3491   1.3640   1.3820
     1.4331   1.4484   1.4568   1.4820   1.4919   1.5138   1.5361   1.5537
     1.5765   1.5845   1.6101   1.6364   1.6487   1.6692   1.6874   1.7008
     1.7363   1.7521   1.7772   1.7961   1.8095   1.8210   1.8593   1.8798
     1.9046   1.9169   1.9409   1.9780   1.9978   2.0235   2.0479   2.0541
     2.0798   2.0995   2.1405   2.1583   2.1795   2.2051   2.2212   2.2317
     2.2487   2.2696   2.2727   2.2992   2.3105   2.3408   2.3476   2.3677
     2.3803   2.3966   2.4174   2.4391   2.4535   2.4714   2.4900   2.5415
     2.5491   2.5771   2.5955   2.6188   2.6485   2.6598   2.6889   2.7148
     2.7310   2.7538   2.7932   2.8127   2.8500   2.8819   2.8943   2.9121
     2.9245   2.9505   2.9596   2.9956   3.0262   3.0386   3.0554   3.0984
     3.1133   3.1298   3.1606   3.2112   3.2319   3.2584   3.2677   3.3199
     3.3486   3.3859   3.4244   3.4594   3.5644   3.6235   3.7302   3.8038
     3.8288   3.8807   3.9687   4.0134   4.0835   4.1322   4.1539   4.2384
     4.2713   4.3020   4.3932   4.4340   4.5026   4.5376   4.6578   4.7570
     4.7892   4.8476   4.9064   4.9412   5.0308   5.0501   5.1069   5.1818
     5.2044   5.2183   5.2579   5.2844   5.3050   5.3181   5.3381   5.3476
     5.3670   5.3769   5.3836   5.3906   5.4000   5.4092   5.4245   5.4329
     5.4490   5.4654   5.4776   5.5003   5.5237   5.5396   5.5606   5.5829
     5.6663   5.6905   5.7323   5.7750   5.8374   5.8521   5.8850   5.9066
     5.9658   5.9980   6.0455   6.1193   6.1620   6.2331   6.2585   6.3713
     6.4140   6.5309   6.6025   6.6500   6.7242

          k =-0.1980-0.9051 0.6000 ( 92306 PWs)   bands (ev):

   -73.5451 -73.5361 -73.5316 -73.5285 -73.5272 -73.5253 -73.5206 -73.4581
   -73.4309 -73.2933 -42.3427 -42.3394 -42.3390 -42.3333 -42.3314 -42.3258
   -42.3218 -42.3090 -42.3072 -42.3044 -42.2967 -42.2938 -42.2935 -42.2904
   -42.2849 -42.2845 -42.2842 -42.2824 -42.2815 -42.2811 -42.2800 -42.2646
   -42.2512 -42.2413 -42.2162 -42.1864 -42.1621 -42.1106 -42.0955 -42.0588
    -3.2782  -2.8332  -2.7291  -2.3249  -2.0468  -1.8345  -1.6862  -1.5779
    -1.4458  -1.4178  -1.3506  -1.1839  -1.1405  -1.1258  -1.0842  -1.0469
    -1.0143  -1.0066  -0.9419  -0.9079  -0.8659  -0.8202  -0.7985  -0.7944
    -0.7709  -0.7346  -0.7127  -0.6967  -0.6714  -0.6688  -0.6428  -0.6343
    -0.5832  -0.5760  -0.5610  -0.5469  -0.5092  -0.4900  -0.4532  -0.4464
    -0.4059  -0.3785  -0.3629  -0.3343  -0.3182  -0.3066  -0.2843  -0.2599
    -0.2422  -0.2255  -0.1926  -0.1585  -0.1257  -0.1055  -0.0775  -0.0407
    -0.0204   0.0065   0.0095   0.0676   0.0828   0.1157   0.1478   0.1652
     0.1775   0.2110   0.2366   0.2653   0.3003   0.3220   0.3346   0.3685
     0.3762   0.4024   0.4503   0.4660   0.4899   0.4935   0.5163   0.5438
     0.5625   0.6046   0.6209   0.6750   0.6921   0.7254   0.7366   0.7476
     0.7564   0.7782   0.7927   0.8115   0.8492   0.8666   0.8835   0.9025
     0.9267   0.9315   0.9769   0.9945   1.0126   1.0301   1.0551   1.0772
     1.0970   1.1052   1.1262   1.1487   1.1648   1.1991   1.2151   1.2455
     1.2576   1.2854   1.3052   1.3317   1.3466   1.3552   1.3746   1.3963
     1.4108   1.4397   1.4462   1.4842   1.4943   1.5052   1.5332   1.5480
     1.5885   1.5925   1.6038   1.6306   1.6494   1.6742   1.6808   1.7020
     1.7435   1.7567   1.7725   1.7970   1.8207   1.8370   1.8615   1.8838
     1.9093   1.9207   1.9458   1.9626   1.9806   2.0113   2.0309   2.0496
     2.0654   2.0912   2.1227   2.1369   2.1625   2.1845   2.2088   2.2242
     2.2497   2.2625   2.2775   2.3015   2.3111   2.3195   2.3548   2.3675
     2.3954   2.4294   2.4391   2.4583   2.4832   2.4917   2.5066   2.5346
     2.5663   2.5834   2.6042   2.6391   2.6490   2.6767   2.7031   2.7273
     2.7543   2.7628   2.8023   2.8257   2.8369   2.8539   2.8843   2.8954
     2.9103   2.9298   2.9533   2.9787   3.0197   3.0522   3.0605   3.0944
     3.1116   3.1203   3.1663   3.2073   3.2234   3.2458   3.2702   3.3073
     3.3313   3.3548   3.4068   3.4710   3.5416   3.5898   3.6217   3.7063
     3.8529   3.9166   3.9837   4.0432   4.0735   4.1278   4.1976   4.2386
     4.2899   4.3466   4.3967   4.4470   4.5274   4.5925   4.6345   4.7230
     4.7620   4.8483   4.8951   5.0249   5.0549   5.0957   5.1341   5.2117
     5.2256   5.2443   5.2747   5.2858   5.3159   5.3237   5.3326   5.3486
     5.3671   5.3726   5.3813   5.3844   5.3906   5.4024   5.4212   5.4395
     5.4507   5.4739   5.4860   5.4952   5.5266   5.5378   5.5482   5.5725
     5.5763   5.6147   5.6433   5.7043   5.7387   5.8087   5.8344   5.8765
     5.9053   5.9795   5.9901   6.1114   6.1469   6.2288   6.3853   6.3890
     6.4542   6.5994   6.6944   6.7997   6.8752

          k = 0.5657-0.1414-0.2308 ( 92318 PWs)   bands (ev):

   -73.5451 -73.5361 -73.5316 -73.5285 -73.5272 -73.5253 -73.5206 -73.4581
   -73.4309 -73.2933 -42.3427 -42.3394 -42.3390 -42.3333 -42.3314 -42.3258
   -42.3218 -42.3090 -42.3072 -42.3044 -42.2967 -42.2938 -42.2935 -42.2904
   -42.2849 -42.2845 -42.2842 -42.2824 -42.2815 -42.2811 -42.2800 -42.2646
   -42.2512 -42.2413 -42.2162 -42.1864 -42.1621 -42.1106 -42.0955 -42.0588
    -3.0972  -3.0912  -2.5728  -2.5535  -1.9515  -1.9075  -1.6303  -1.5302
    -1.4285  -1.3964  -1.2742  -1.1912  -1.1712  -1.1396  -1.0624  -1.0332
    -1.0017  -0.9891  -0.9159  -0.9035  -0.8804  -0.8779  -0.8116  -0.7978
    -0.7578  -0.7255  -0.7111  -0.6825  -0.6709  -0.6532  -0.6406  -0.6198
    -0.6022  -0.5995  -0.5685  -0.5451  -0.5060  -0.4814  -0.4792  -0.4561
    -0.4368  -0.3749  -0.3393  -0.3247  -0.3060  -0.2974  -0.2755  -0.2579
    -0.2463  -0.2384  -0.2162  -0.1585  -0.1457  -0.1340  -0.0842  -0.0256
    -0.0201   0.0126   0.0273   0.0345   0.0689   0.0985   0.1341   0.1576
     0.1912   0.2200   0.2502   0.2841   0.3030   0.3404   0.3651   0.3945
     0.3987   0.4251   0.4363   0.4789   0.4844   0.5222   0.5284   0.5500
     0.5722   0.5790   0.6379   0.6613   0.6793   0.7090   0.7247   0.7437
     0.7695   0.7844   0.7951   0.8110   0.8292   0.8400   0.8809   0.9016
     0.9171   0.9283   0.9597   0.9657   0.9957   1.0307   1.0479   1.0572
     1.0826   1.0928   1.0962   1.1128   1.1628   1.1953   1.2158   1.2229
     1.2725   1.3000   1.3189   1.3394   1.3432   1.3941   1.4058   1.4196
     1.4357   1.4382   1.4418   1.4652   1.4955   1.5161   1.5225   1.5533
     1.5757   1.5941   1.6026   1.6270   1.6416   1.6577   1.6920   1.7284
     1.7499   1.7814   1.7987   1.8100   1.8168   1.8487   1.8694   1.8726
     1.9068   1.9189   1.9322   1.9626   1.9851   2.0091   2.0130   2.0404
     2.0620   2.0808   2.0830   2.1315   2.1510   2.1579   2.1805   2.2163
     2.2481   2.2562   2.2738   2.2882   2.2993   2.3280   2.3349   2.3877
     2.4108   2.4272   2.4474   2.4614   2.4828   2.5049   2.5395   2.5557
     2.5867   2.6126   2.6210   2.6384   2.6723   2.6900   2.7217   2.7422
     2.7750   2.7793   2.7986   2.8171   2.8449   2.8572   2.8611   2.8845
     2.8998   2.9226   2.9581   2.9722   3.0026   3.0579   3.0695   3.1028
     3.1183   3.1460   3.1645   3.1892   3.2068   3.2384   3.2626   3.3068
     3.3444   3.3896   3.4091   3.4468   3.4745   3.4946   3.6064   3.6682
     3.8405   3.8933   4.0066   4.0469   4.0843   4.1300   4.2137   4.2157
     4.2432   4.3732   4.4352   4.4946   4.5257   4.5515   4.6740   4.6923
     4.7264   4.8877   4.9189   5.0122   5.0641   5.1300   5.1915   5.2244
     5.2476   5.2551   5.2867   5.2948   5.3060   5.3218   5.3444   5.3525
     5.3590   5.3649   5.3733   5.3857   5.3923   5.3984   5.4235   5.4419
     5.4496   5.4708   5.4849   5.4951   5.5000   5.5050   5.5476   5.5531
     5.5615   5.5700   5.5876   5.6420   5.7295   5.7408   5.8237   5.8280
     5.8510   6.0048   6.0232   6.0860   6.1326   6.1773   6.3590   6.4190
     6.6544   6.6970   6.9191   7.0203   7.0231

     the Fermi energy is     5.4489 ev

!    total energy              =   -6709.75170068 Ry
     estimated scf accuracy    <       0.00000071 Ry
     smearing contrib. (-TS)   =      -0.17345414 Ry
     internal energy E=F+TS    =   -6709.57824653 Ry

     The total energy is F=E-TS. E is the sum of the following terms:
     one-electron contribution =  -51075.15367417 Ry
     hartree contribution      =   25941.36446914 Ry
     xc contribution           =   -2752.65502160 Ry
     ewald contribution        =   21176.86591184 Ry
     electric field correction =       0.00006826 Ry

     convergence has been achieved in  87 iterations

     negative rho (up, down):  1.836E-03 0.000E+00

     Forces acting on atoms (cartesian axes, Ry/au):

     atom    1 type  1   force =     0.00266900   -0.00220078   -0.00283064
     atom    2 type  1   force =     0.00134909    0.00064382    0.00090321
     atom    3 type  1   force =     0.00925230    0.03615136    0.07002061
     atom    4 type  1   force =    -0.00045354    0.00027072    0.00044584
     atom    5 type  1   force =    -0.00109483    0.00489071    0.01089957
     atom    6 type  1   force =    -0.00014201    0.00009002    0.00002268
     atom    7 type  1   force =     0.00275991   -0.00089163    0.00133648
     atom    8 type  1   force =    -0.00061966    0.00282209    0.00137423
     atom    9 type  1   force =    -0.03249908   -0.01448319   -0.02224893
     atom   10 type  1   force =     0.03059640    0.01275207    0.02400197
     atom   11 type  2   force =     0.00519911   -0.00823669    0.00004386
     atom   12 type  2   force =     0.00476496   -0.00959474   -0.00020625
     atom   13 type  2   force =     0.00439314   -0.00873251   -0.00087343
     atom   14 type  2   force =     0.00424521   -0.00783424    0.01389474
     atom   15 type  2   force =    -0.01530481   -0.00783921   -0.00127908
     atom   16 type  2   force =    -0.00769994   -0.00500258    0.00019015
     atom   17 type  2   force =    -0.00846720   -0.00411699   -0.00348007
     atom   18 type  2   force =    -0.00803183   -0.00424332    0.00143750
     atom   19 type  2   force =     0.00606328   -0.00238330    0.00314275
     atom   20 type  2   force =    -0.01152000   -0.02711806   -0.02651888
     atom   21 type  2   force =     0.00781354    0.00481872   -0.00061093
     atom   22 type  2   force =     0.00789477    0.00412144   -0.00192512
     atom   23 type  2   force =     0.00987495    0.00529667    0.00401634
     atom   24 type  2   force =     0.00901566    0.02346311    0.01620986
     atom   25 type  2   force =    -0.00526750   -0.00122370   -0.01948217
     atom   26 type  2   force =    -0.00379115    0.00955968    0.00141170
     atom   27 type  2   force =    -0.00499598    0.00843109    0.00020906
     atom   28 type  2   force =    -0.02055571   -0.00389021   -0.02973619
     atom   29 type  2   force =    -0.00644503    0.00988476   -0.00121307
     atom   30 type  2   force =     0.01532216    0.00208807    0.00203582
     atom   31 type  2   force =     0.00417679   -0.00845042   -0.00059184
     atom   32 type  2   force =     0.00462060   -0.00852550   -0.00060911
     atom   33 type  2   force =     0.00961983   -0.00964474   -0.00751951
     atom   34 type  2   force =     0.00322814   -0.00844026   -0.00356429
     atom   35 type  2   force =    -0.00739239   -0.01695531   -0.02196391
     atom   36 type  2   force =    -0.00816531   -0.00436504    0.00061116
     atom   37 type  2   force =    -0.00865766   -0.00650764   -0.00170893
     atom   38 type  2   force =    -0.00892852   -0.00278350    0.00110582
     atom   39 type  2   force =    -0.00575315    0.01480488    0.02028423
     atom   40 type  2   force =    -0.00736927   -0.01926044   -0.00304374
     atom   41 type  2   force =     0.00795765    0.00443311   -0.00045851
     atom   42 type  2   force =     0.00849444    0.00444658   -0.00057451
     atom   43 type  2   force =     0.00630548   -0.01165733   -0.01864762
     atom   44 type  2   force =     0.00508389    0.00057478    0.00038087
     atom   45 type  2   force =     0.01664497   -0.00264643   -0.01396944
     atom   46 type  2   force =    -0.00388449    0.00885664    0.00095355
     atom   47 type  2   force =    -0.00532296    0.00983647    0.00794976
     atom   48 type  2   force =    -0.00532891    0.00851096    0.00047414
     atom   49 type  2   force =     0.00471462    0.02045245   -0.00318395
     atom   50 type  2   force =    -0.00436898    0.00982760    0.00288422

     Total force =     0.145298     Total SCF correction =     0.004015

     Writing all to output data dir ./calc.save/
 
     init_run     :    208.40s CPU    226.51s WALL (       1 calls)
     electrons    :  32326.32s CPU  34578.83s WALL (       1 calls)
     forces       :    124.90s CPU    136.46s WALL (       1 calls)

     Called by init_run:
     wfcinit      :    198.40s CPU    214.35s WALL (       1 calls)
     potinit      :      2.06s CPU      2.13s WALL (       1 calls)
     hinit0       :      3.45s CPU      3.57s WALL (       1 calls)

     Called by electrons:
     c_bands      :  26895.86s CPU  28649.53s WALL (      87 calls)
     sum_band     :   4649.08s CPU   4946.41s WALL (      87 calls)
     v_of_rho     :     49.69s CPU     56.26s WALL (      88 calls)
     newd         :    265.46s CPU    443.19s WALL (      88 calls)
     mix_rho      :    464.99s CPU    482.40s WALL (      87 calls)

     Called by c_bands:
     init_us_2    :    365.31s CPU    376.48s WALL (    7392 calls)
     init_us_2:cp :    365.24s CPU    376.43s WALL (    7392 calls)
     cegterg      :  24905.56s CPU  26595.83s WALL (    3654 calls)

     Called by *egterg:
     cdiaghg      :   1681.11s CPU   1715.91s WALL (    8359 calls)
     h_psi        :  14073.21s CPU  14751.19s WALL (    8401 calls)
     s_psi        :   3205.58s CPU   3279.48s WALL (    8401 calls)
     g_psi        :     41.68s CPU     43.91s WALL (    4705 calls)

     Called by h_psi:
     h_psi:calbec :   3512.92s CPU   3636.36s WALL (    8401 calls)
     vloc_psi     :   7253.28s CPU   7565.64s WALL (    8401 calls)
     add_vuspsi   :   3252.23s CPU   3371.13s WALL (    8401 calls)

     General routines
     calbec       :   5321.15s CPU   5486.22s WALL (   12223 calls)
     fft          :     83.13s CPU     87.80s WALL (    1153 calls)
     ffts         :    197.14s CPU    201.81s WALL (   58567 calls)
     fftw         :   7827.40s CPU   8157.67s WALL ( 5985864 calls)
     interpolate  :      2.59s CPU      2.79s WALL (      88 calls)
 
     Parallel routines
 
     PWSCF        :      9h 5m CPU      9h44m WALL

 
   This run was terminated on:  11:51:47   8Aug2023            

=------------------------------------------------------------------------------=
   JOB DONE.
=------------------------------------------------------------------------------=
