  python dir          : /home/p.schindler/.conda/envs/dft3_8/lib/python3.8/site-packages/espresso
  espresso dir        : /home/p.schindler/q-e_7-1/bin/
  pseudo dir          : /home/p.schindler/q-e_7-1/PSPs/Vanderbilt_USPP_PBE/
  ase-espresso py git : 4b1d7e3-git



     Program PWSCF v.7.1 starts on  8Aug2023 at  2: 5:58 

     This program is part of the open-source Quantum ESPRESSO suite
     for quantum simulation of materials; please cite
         "P. Giannozzi et al., J. Phys.:Condens. Matter 21 395502 (2009);
         "P. Giannozzi et al., J. Phys.:Condens. Matter 29 465901 (2017);
         "P. Giannozzi et al., J. Chem. Phys. 152 154105 (2020);
          URL http://www.quantum-espresso.org", 
     in publications or presentations arising from this work. More details at
     http://www.quantum-espresso.org/quote

     Parallel version (MPI), running on    20 processors

     MPI processes distributed on     1 nodes
     179140 MiB available memory on the printing compute node when the environment starts
 
     Reading input from pw.inp

     Current dimensions of program PWSCF are:
     Max number of different atomic species (ntypx) = 10
     Max number of k-points (npk) =  40000
     Max angular momentum in pseudopotentials (lmaxx) =  4
     Presently no symmetry can be used with electric field

     file Tm.UPF: wavefunction(s)  5D renormalized

     IMPORTANT: XC functional enforced from input :
     Exchange-correlation= PBE
                           (   1   4   3   4   0   0   0)
     Any further DFT definition will be discarded
     Please, verify this is what you really want

 
     R & G space division:  proc/nbgrp/npool/nimage =      20
     Subspace diagonalization in iterative solution of the eigenvalue problem:
     a serial algorithm will be used

 
     Parallelization info
     --------------------
     sticks:   dense  smooth     PW     G-vecs:    dense   smooth      PW
     Min         440     176     48               116490    29468    4228
     Max         441     177     49               116507    29478    4240
     Sum        8801    3525    969              2329991   589427   84677
 
     Using Slab Decomposition
 


     bravais-lattice index     =            0
     lattice parameter (alat)  =      10.7850  a.u.
     unit-cell volume          =    8836.5938 (a.u.)^3
     number of atoms/cell      =           30
     number of atomic types    =            2
     number of electrons       =       230.00
     number of Kohn-Sham states=          145
     kinetic-energy cutoff     =      62.4738  Ry
     charge density cutoff     =     624.7385  Ry
     scf convergence threshold =      7.3E-07
     mixing beta               =       0.1500
     number of iterations used =           10  local-TF  mixing
     Exchange-correlation= PBE
                           (   1   4   3   4   0   0   0)

     celldm(1)=  10.784961  celldm(2)=   0.000000  celldm(3)=   0.000000
     celldm(4)=   0.000000  celldm(5)=   0.000000  celldm(6)=   0.000000

     crystal axes: (cart. coord. in units of alat)
               a(1) = (  -0.707107   0.707107   0.000000 )  
               a(2) = (  -0.707107   0.000000   1.439519 )  
               a(3) = (   2.768132   2.768132   2.817664 )  

     reciprocal axes: (cart. coord. in units 2 pi/alat)
               b(1) = ( -0.565685  0.848528 -0.277871 )  
               b(2) = ( -0.282843 -0.282843  0.555741 )  
               b(3) = (  0.144502  0.144502  0.070981 )  


     PseudoPot. # 1 for Tm read from file:
     /home/p.schindler/q-e_7-1/PSPs/Vanderbilt_USPP_PBE/Tm.UPF
     MD5 check sum: ac5c967b64b838ec8adf491cc1cfa340
     Pseudo is Projector augmented-wave + core cor, Zval = 11.0
     Generated using "atomic" code by A. Dal Corso  v.5.1.2
     Shape of augmentation charge: PSQ
     Using radial grid of 1269 points,  6 beta functions with: 
                l(1) =   0
                l(2) =   0
                l(3) =   1
                l(4) =   1
                l(5) =   2
                l(6) =   2
     Q(r) pseudized with 0 coefficients 


     PseudoPot. # 2 for Se read from file:
     /home/p.schindler/q-e_7-1/PSPs/Vanderbilt_USPP_PBE/Se.UPF
     MD5 check sum: 1b3568f3a8ae88f9a2a0ad0698632c85
     Pseudo is Ultrasoft + core correction, Zval =  6.0
     Generated by new atomic code, or converted to UPF format
     Using radial grid of  877 points,  6 beta functions with: 
                l(1) =   0
                l(2) =   0
                l(3) =   1
                l(4) =   1
                l(5) =   2
                l(6) =   2
     Q(r) pseudized with  8 coefficients,  rinner =    1.300   1.300   1.300
                                                       1.300   1.300

     atomic species   valence    mass     pseudopotential
        Tm1           11.00   168.93422     Tm( 1.00)
        Se1            6.00    78.97100     Se( 1.00)

     No symmetry found



   Cartesian axes

     site n.     atom                  positions (alat units)
         1           Tm1 tau(   1) = (   0.2526952   1.3133554   1.3036525  )
         2           Tm1 tau(   2) = (   1.6669088   2.0204622   2.7431712  )
         3           Tm1 tau(   3) = (   0.9598020   1.3133554   1.3036525  )
         4           Tm1 tau(   4) = (   0.2526952   2.0204622   2.7431712  )
         5           Tm1 tau(   5) = (   0.9598020   2.0204622   2.7431712  )
         6           Tm1 tau(   6) = (  -0.1008582   0.9598020   2.0898185  )
         7           Tm1 tau(   7) = (   1.3133554   2.3740155   2.0898185  )
         8           Tm1 tau(   8) = (  -0.1008582   1.6669088   2.0898185  )
         9           Tm1 tau(   9) = (   0.6062486   1.6669088   2.0898185  )
        10           Tm1 tau(  10) = (   1.3133554   1.6669088   2.0898185  )
        11           Se1 tau(  11) = (   0.9598020   2.3740155   3.1362542  )
        12           Se1 tau(  12) = (   1.6669088   1.6669088   1.6967355  )
        13           Se1 tau(  13) = (   0.2526952   0.9598020   1.6967355  )
        14           Se1 tau(  14) = (   0.2526952   1.6669088   1.6967355  )
        15           Se1 tau(  15) = (   0.9598020   1.6669088   1.6967355  )
        16           Se1 tau(  16) = (  -0.1008582   1.3133554   1.6967355  )
        17           Se1 tau(  17) = (   1.3133554   2.0204622   3.1362542  )
        18           Se1 tau(  18) = (   0.6062486   1.3133554   1.6967355  )
        19           Se1 tau(  19) = (   0.6062486   2.0204622   1.6967355  )
        20           Se1 tau(  20) = (   1.3133554   2.0204622   1.6967355  )
        21           Se1 tau(  21) = (  -0.4544116   1.3133554   2.2301778  )
        22           Se1 tau(  22) = (   1.6669088   2.0204622   2.2301778  )
        23           Se1 tau(  23) = (   0.2526952   1.3133554   2.2301778  )
        24           Se1 tau(  24) = (   0.2526952   2.0204622   2.2301778  )
        25           Se1 tau(  25) = (   0.9598020   2.0204622   2.2301778  )
        26           Se1 tau(  26) = (   0.6062486   0.9598020   1.1632932  )
        27           Se1 tau(  27) = (   1.3133554   2.3740155   2.6028120  )
        28           Se1 tau(  28) = (   0.6062486   1.6669088   1.1632932  )
        29           Se1 tau(  29) = (   0.6062486   1.6669088   2.6028120  )
        30           Se1 tau(  30) = (   0.6062486   2.3740155   2.6028120  )

     number of k points=    32  Gaussian smearing, width (Ry)=  0.0147
                       cart. coord. in units 2pi/alat
        k(    1) = (   0.0000000   0.0000000   0.0000000), wk =   0.0333333
        k(    2) = (  -0.0471405  -0.0471405   0.0926235), wk =   0.0666667
        k(    3) = (  -0.0942809  -0.0942809   0.1852471), wk =   0.0666667
        k(    4) = (   0.1414214   0.1414214  -0.2778706), wk =   0.0333333
        k(    5) = (  -0.0565685   0.0848528  -0.0277871), wk =   0.0666667
        k(    6) = (  -0.1037090   0.0377124   0.0648365), wk =   0.0666667
        k(    7) = (  -0.1508494  -0.0094281   0.1574600), wk =   0.0666667
        k(    8) = (   0.0848528   0.2262742  -0.3056577), wk =   0.0666667
        k(    9) = (   0.0377124   0.1791337  -0.2130342), wk =   0.0666667
        k(   10) = (  -0.0094281   0.1319933  -0.1204106), wk =   0.0666667
        k(   11) = (  -0.1131371   0.1697056  -0.0555741), wk =   0.0666667
        k(   12) = (  -0.1602775   0.1225652   0.0370494), wk =   0.0666667
        k(   13) = (  -0.2074180   0.0754247   0.1296730), wk =   0.0666667
        k(   14) = (   0.0282843   0.3111270  -0.3334448), wk =   0.0666667
        k(   15) = (  -0.0188562   0.2639865  -0.2408212), wk =   0.0666667
        k(   16) = (  -0.0659966   0.2168461  -0.1481977), wk =   0.0666667
        k(   17) = (  -0.1697056   0.2545584  -0.0833612), wk =   0.0666667
        k(   18) = (  -0.2168461   0.2074180   0.0092624), wk =   0.0666667
        k(   19) = (  -0.2639865   0.1602775   0.1018859), wk =   0.0666667
        k(   20) = (  -0.0282843   0.3959798  -0.3612318), wk =   0.0666667
        k(   21) = (  -0.0754247   0.3488393  -0.2686083), wk =   0.0666667
        k(   22) = (  -0.1225652   0.3016989  -0.1759847), wk =   0.0666667
        k(   23) = (  -0.2262742   0.3394113  -0.1111483), wk =   0.0666667
        k(   24) = (  -0.2734146   0.2922708  -0.0185247), wk =   0.0666667
        k(   25) = (  -0.3205551   0.2451304   0.0740988), wk =   0.0666667
        k(   26) = (  -0.0848528   0.4808326  -0.3890189), wk =   0.0666667
        k(   27) = (  -0.1319933   0.4336922  -0.2963954), wk =   0.0666667
        k(   28) = (  -0.1791337   0.3865517  -0.2037718), wk =   0.0666667
        k(   29) = (   0.2828427  -0.4242641   0.1389353), wk =   0.0333333
        k(   30) = (   0.2357023  -0.4714045   0.2315589), wk =   0.0666667
        k(   31) = (   0.1885618  -0.5185450   0.3241824), wk =   0.0666667
        k(   32) = (   0.4242641  -0.2828427  -0.1389353), wk =   0.0333333

     Dense  grid:  2329991 G-vectors     FFT dimensions: (  90, 144, 432)

     Smooth grid:   589427 G-vectors     FFT dimensions: (  60,  90, 270)

     Estimated max dynamical RAM per process >     816.06 MB

     Estimated total dynamical RAM >      15.94 GB

     Initial potential from superposition of free atoms

     starting charge     229.7999, renormalised to     230.0000

     negative rho (up, down):  3.852E-04 0.000E+00
 
     Adding external electric field

     Computed dipole along edir(3) : 
        Dipole               -0.0000 Ry au,         -0.0000 Debye
        Dipole field         -0.0000 Ry au, 
 
        Potential amp.        0.0000 Ry
        Total length         50.7188 bohr
 
     Starting wfcs are  210 randomized atomic wfcs
     Checking if some PAW data can be deallocated... 

     total cpu time spent up to now is       32.4 secs

     Self-consistent Calculation

     iteration #  1     ecut=    62.47 Ry     beta= 0.15
     Davidson diagonalization with overlap
     ethr =  1.00E-02,  avg # of iterations =  2.1

     Threshold (ethr) on eigenvalues was too large:
     Diagonalizing with lowered threshold

     Davidson diagonalization with overlap
     ethr =  6.28E-04,  avg # of iterations =  2.1

     negative rho (up, down):  1.887E-07 0.000E+00
 
     Adding external electric field

     Computed dipole along edir(3) : 
        Dipole               -0.0128 Ry au,         -0.0325 Debye
        Dipole field         -0.0000 Ry au, 
 
        Potential amp.        0.0018 Ry
        Total length         50.7188 bohr
 

     total cpu time spent up to now is      143.4 secs

     total energy              =   -7221.42514328 Ry
     estimated scf accuracy    <       1.45462172 Ry

     iteration #  2     ecut=    62.47 Ry     beta= 0.15
     Davidson diagonalization with overlap
     ethr =  6.32E-04,  avg # of iterations =  1.0
 
     Adding external electric field

     Computed dipole along edir(3) : 
        Dipole               -0.1235 Ry au,         -0.3139 Debye
        Dipole field         -0.0002 Ry au, 
 
        Potential amp.        0.0178 Ry
        Total length         50.7188 bohr
 

     total cpu time spent up to now is      192.2 secs

     total energy              =   -7221.00593728 Ry
     estimated scf accuracy    <       1.25870421 Ry

     iteration #  3     ecut=    62.47 Ry     beta= 0.15
     Davidson diagonalization with overlap
     ethr =  5.47E-04,  avg # of iterations =  2.0
 
     Adding external electric field

     Computed dipole along edir(3) : 
        Dipole               -0.1481 Ry au,         -0.3765 Debye
        Dipole field         -0.0002 Ry au, 
 
        Potential amp.        0.0214 Ry
        Total length         50.7188 bohr
 

     total cpu time spent up to now is      249.9 secs

     total energy              =   -7221.14403140 Ry
     estimated scf accuracy    <       0.29805958 Ry

     iteration #  4     ecut=    62.47 Ry     beta= 0.15
     Davidson diagonalization with overlap
     ethr =  1.30E-04,  avg # of iterations =  1.4
 
     Adding external electric field

     Computed dipole along edir(3) : 
        Dipole               -0.2533 Ry au,         -0.6439 Debye
        Dipole field         -0.0004 Ry au, 
 
        Potential amp.        0.0365 Ry
        Total length         50.7188 bohr
 

     total cpu time spent up to now is      300.4 secs

     total energy              =   -7221.12406258 Ry
     estimated scf accuracy    <       0.23913715 Ry

     iteration #  5     ecut=    62.47 Ry     beta= 0.15
     Davidson diagonalization with overlap
     ethr =  1.04E-04,  avg # of iterations =  2.4
 
     Adding external electric field

     Computed dipole along edir(3) : 
        Dipole               -0.2968 Ry au,         -0.7544 Debye
        Dipole field         -0.0004 Ry au, 
 
        Potential amp.        0.0428 Ry
        Total length         50.7188 bohr
 

     total cpu time spent up to now is      354.6 secs

     total energy              =   -7221.12154441 Ry
     estimated scf accuracy    <       0.10400028 Ry

     iteration #  6     ecut=    62.47 Ry     beta= 0.15
     Davidson diagonalization with overlap
     ethr =  4.52E-05,  avg # of iterations = 11.7
 
     Adding external electric field

     Computed dipole along edir(3) : 
        Dipole               -0.3127 Ry au,         -0.7947 Debye
        Dipole field         -0.0004 Ry au, 
 
        Potential amp.        0.0451 Ry
        Total length         50.7188 bohr
 

     total cpu time spent up to now is      435.3 secs

     total energy              =   -7221.12470682 Ry
     estimated scf accuracy    <       0.07228846 Ry

     iteration #  7     ecut=    62.47 Ry     beta= 0.15
     Davidson diagonalization with overlap
     ethr =  3.14E-05,  avg # of iterations =  1.5

     negative rho (up, down):  2.225E-03 0.000E+00
 
     Adding external electric field

     Computed dipole along edir(3) : 
        Dipole               -0.4111 Ry au,         -1.0448 Debye
        Dipole field         -0.0006 Ry au, 
 
        Potential amp.        0.0593 Ry
        Total length         50.7188 bohr
 

     total cpu time spent up to now is      486.4 secs

     total energy              =   -7221.11632458 Ry
     estimated scf accuracy    <       0.06960290 Ry

     iteration #  8     ecut=    62.47 Ry     beta= 0.15
     Davidson diagonalization with overlap
     c_bands:  1 eigenvalues not converged
     ethr =  3.03E-05,  avg # of iterations =  4.7
 
     Adding external electric field

     Computed dipole along edir(3) : 
        Dipole               -0.3457 Ry au,         -0.8787 Debye
        Dipole field         -0.0005 Ry au, 
 
        Potential amp.        0.0499 Ry
        Total length         50.7188 bohr
 

     total cpu time spent up to now is      543.7 secs

     total energy              =   -7221.11585993 Ry
     estimated scf accuracy    <       0.04314448 Ry

     iteration #  9     ecut=    62.47 Ry     beta= 0.15
     Davidson diagonalization with overlap
     ethr =  1.88E-05,  avg # of iterations =  2.3

     negative rho (up, down):  4.486E-03 0.000E+00
 
     Adding external electric field

     Computed dipole along edir(3) : 
        Dipole               -0.3398 Ry au,         -0.8636 Debye
        Dipole field         -0.0005 Ry au, 
 
        Potential amp.        0.0490 Ry
        Total length         50.7188 bohr
 

     total cpu time spent up to now is      597.6 secs

     total energy              =   -7221.11215697 Ry
     estimated scf accuracy    <       0.01939238 Ry

     iteration # 10     ecut=    62.47 Ry     beta= 0.15
     Davidson diagonalization with overlap
     ethr =  8.43E-06,  avg # of iterations = 11.6

     negative rho (up, down):  5.865E-06 0.000E+00
 
     Adding external electric field

     Computed dipole along edir(3) : 
        Dipole               -0.2845 Ry au,         -0.7230 Debye
        Dipole field         -0.0004 Ry au, 
 
        Potential amp.        0.0410 Ry
        Total length         50.7188 bohr
 

     total cpu time spent up to now is      677.3 secs

     total energy              =   -7221.11349062 Ry
     estimated scf accuracy    <       0.00963141 Ry

     iteration # 11     ecut=    62.47 Ry     beta= 0.15
     Davidson diagonalization with overlap
     ethr =  4.19E-06,  avg # of iterations =  4.0

     negative rho (up, down):  7.709E-06 0.000E+00
 
     Adding external electric field

     Computed dipole along edir(3) : 
        Dipole               -0.2857 Ry au,         -0.7262 Debye
        Dipole field         -0.0004 Ry au, 
 
        Potential amp.        0.0412 Ry
        Total length         50.7188 bohr
 

     total cpu time spent up to now is      732.7 secs

     total energy              =   -7221.11377693 Ry
     estimated scf accuracy    <       0.01074779 Ry

     iteration # 12     ecut=    62.47 Ry     beta= 0.15
     Davidson diagonalization with overlap
     ethr =  4.19E-06,  avg # of iterations =  1.0

     negative rho (up, down):  1.132E-05 0.000E+00
 
     Adding external electric field

     Computed dipole along edir(3) : 
        Dipole               -0.2713 Ry au,         -0.6897 Debye
        Dipole field         -0.0004 Ry au, 
 
        Potential amp.        0.0391 Ry
        Total length         50.7188 bohr
 

     total cpu time spent up to now is      781.7 secs

     total energy              =   -7221.11333038 Ry
     estimated scf accuracy    <       0.01091349 Ry

     iteration # 13     ecut=    62.47 Ry     beta= 0.15
     Davidson diagonalization with overlap
     ethr =  4.19E-06,  avg # of iterations =  1.0

     negative rho (up, down):  1.774E-02 0.000E+00
 
     Adding external electric field

     Computed dipole along edir(3) : 
        Dipole               -0.1102 Ry au,         -0.2800 Debye
        Dipole field         -0.0002 Ry au, 
 
        Potential amp.        0.0159 Ry
        Total length         50.7188 bohr
 

     total cpu time spent up to now is      831.0 secs

     total energy              =   -7221.11081723 Ry
     estimated scf accuracy    <       0.01011889 Ry

     iteration # 14     ecut=    62.47 Ry     beta= 0.15
     Davidson diagonalization with overlap
     ethr =  4.19E-06,  avg # of iterations = 11.5

     negative rho (up, down):  5.351E-03 0.000E+00
 
     Adding external electric field

     Computed dipole along edir(3) : 
        Dipole                0.1556 Ry au,          0.3954 Debye
        Dipole field          0.0002 Ry au, 
 
        Potential amp.       -0.0224 Ry
        Total length         50.7188 bohr
 

     total cpu time spent up to now is      916.7 secs

     total energy              =   -7221.11249361 Ry
     estimated scf accuracy    <       0.01191487 Ry

     iteration # 15     ecut=    62.47 Ry     beta= 0.15
     Davidson diagonalization with overlap
     ethr =  4.19E-06,  avg # of iterations = 11.0

     negative rho (up, down):  6.807E-03 0.000E+00
 
     Adding external electric field

     Computed dipole along edir(3) : 
        Dipole                0.0949 Ry au,          0.2413 Debye
        Dipole field          0.0001 Ry au, 
 
        Potential amp.       -0.0137 Ry
        Total length         50.7188 bohr
 

     total cpu time spent up to now is      997.1 secs

     total energy              =   -7221.11084978 Ry
     estimated scf accuracy    <       0.02515784 Ry

     iteration # 16     ecut=    62.47 Ry     beta= 0.15
     Davidson diagonalization with overlap
     ethr =  4.19E-06,  avg # of iterations =  6.0

     negative rho (up, down):  1.569E-03 0.000E+00
 
     Adding external electric field

     Computed dipole along edir(3) : 
        Dipole                0.0962 Ry au,          0.2444 Debye
        Dipole field          0.0001 Ry au, 
 
        Potential amp.       -0.0139 Ry
        Total length         50.7188 bohr
 

     total cpu time spent up to now is     1059.5 secs

     total energy              =   -7221.11100499 Ry
     estimated scf accuracy    <       0.00916151 Ry

     iteration # 17     ecut=    62.47 Ry     beta= 0.15
     Davidson diagonalization with overlap
     ethr =  3.98E-06,  avg # of iterations =  2.6

     negative rho (up, down):  3.778E-04 0.000E+00
 
     Adding external electric field

     Computed dipole along edir(3) : 
        Dipole                0.0880 Ry au,          0.2237 Debye
        Dipole field          0.0001 Ry au, 
 
        Potential amp.       -0.0127 Ry
        Total length         50.7188 bohr
 

     total cpu time spent up to now is     1114.3 secs

     total energy              =   -7221.11127606 Ry
     estimated scf accuracy    <       0.00371298 Ry

     iteration # 18     ecut=    62.47 Ry     beta= 0.15
     Davidson diagonalization with overlap
     ethr =  1.61E-06,  avg # of iterations =  8.4

     negative rho (up, down):  1.265E-03 0.000E+00
 
     Adding external electric field

     Computed dipole along edir(3) : 
        Dipole                0.0178 Ry au,          0.0454 Debye
        Dipole field          0.0000 Ry au, 
 
        Potential amp.       -0.0026 Ry
        Total length         50.7188 bohr
 

     total cpu time spent up to now is     1178.1 secs

     total energy              =   -7221.11091369 Ry
     estimated scf accuracy    <       0.00277341 Ry

     iteration # 19     ecut=    62.47 Ry     beta= 0.15
     Davidson diagonalization with overlap
     c_bands:  1 eigenvalues not converged
     c_bands:  1 eigenvalues not converged
     c_bands:  1 eigenvalues not converged
     ethr =  1.21E-06,  avg # of iterations = 11.6

     negative rho (up, down):  1.711E-03 0.000E+00
 
     Adding external electric field

     Computed dipole along edir(3) : 
        Dipole                0.0059 Ry au,          0.0150 Debye
        Dipole field          0.0000 Ry au, 
 
        Potential amp.       -0.0009 Ry
        Total length         50.7188 bohr
 

     total cpu time spent up to now is     1254.9 secs

     total energy              =   -7221.11114588 Ry
     estimated scf accuracy    <       0.00034105 Ry

     iteration # 20     ecut=    62.47 Ry     beta= 0.15
     Davidson diagonalization with overlap
     c_bands:  1 eigenvalues not converged
     ethr =  1.48E-07,  avg # of iterations =  4.7

     negative rho (up, down):  1.039E-03 0.000E+00
 
     Adding external electric field

     Computed dipole along edir(3) : 
        Dipole                0.0293 Ry au,          0.0745 Debye
        Dipole field          0.0000 Ry au, 
 
        Potential amp.       -0.0042 Ry
        Total length         50.7188 bohr
 

     total cpu time spent up to now is     1320.3 secs

     total energy              =   -7221.11122735 Ry
     estimated scf accuracy    <       0.00013469 Ry

     iteration # 21     ecut=    62.47 Ry     beta= 0.15
     Davidson diagonalization with overlap
     c_bands:  1 eigenvalues not converged
     c_bands:  1 eigenvalues not converged
     c_bands:  1 eigenvalues not converged
     c_bands:  1 eigenvalues not converged
     ethr =  5.86E-08,  avg # of iterations =  8.6

     negative rho (up, down):  1.460E-04 0.000E+00
 
     Adding external electric field

     Computed dipole along edir(3) : 
        Dipole                0.0134 Ry au,          0.0340 Debye
        Dipole field          0.0000 Ry au, 
 
        Potential amp.       -0.0019 Ry
        Total length         50.7188 bohr
 

     total cpu time spent up to now is     1394.9 secs

     total energy              =   -7221.11124418 Ry
     estimated scf accuracy    <       0.00023744 Ry

     iteration # 22     ecut=    62.47 Ry     beta= 0.15
     Davidson diagonalization with overlap
     c_bands:  1 eigenvalues not converged
     c_bands:  1 eigenvalues not converged
     ethr =  5.86E-08,  avg # of iterations =  6.8

     negative rho (up, down):  4.225E-04 0.000E+00
 
     Adding external electric field

     Computed dipole along edir(3) : 
        Dipole                0.0009 Ry au,          0.0022 Debye
        Dipole field          0.0000 Ry au, 
 
        Potential amp.       -0.0001 Ry
        Total length         50.7188 bohr
 

     total cpu time spent up to now is     1459.4 secs

     total energy              =   -7221.11125686 Ry
     estimated scf accuracy    <       0.00003254 Ry

     iteration # 23     ecut=    62.47 Ry     beta= 0.15
     Davidson diagonalization with overlap
     ethr =  1.41E-08,  avg # of iterations =  4.1

     negative rho (up, down):  4.228E-05 0.000E+00
 
     Adding external electric field

     Computed dipole along edir(3) : 
        Dipole                0.0021 Ry au,          0.0052 Debye
        Dipole field          0.0000 Ry au, 
 
        Potential amp.       -0.0003 Ry
        Total length         50.7188 bohr
 

     total cpu time spent up to now is     1524.4 secs

     total energy              =   -7221.11126765 Ry
     estimated scf accuracy    <       0.00000589 Ry

     iteration # 24     ecut=    62.47 Ry     beta= 0.15
     Davidson diagonalization with overlap
     ethr =  2.56E-09,  avg # of iterations =  4.4

     negative rho (up, down):  6.070E-05 0.000E+00
 
     Adding external electric field

     Computed dipole along edir(3) : 
        Dipole               -0.0003 Ry au,         -0.0008 Debye
        Dipole field         -0.0000 Ry au, 
 
        Potential amp.        0.0000 Ry
        Total length         50.7188 bohr
 

     total cpu time spent up to now is     1603.3 secs

     total energy              =   -7221.11126983 Ry
     estimated scf accuracy    <       0.00000436 Ry

     iteration # 25     ecut=    62.47 Ry     beta= 0.15
     Davidson diagonalization with overlap
     ethr =  1.90E-09,  avg # of iterations =  2.0

     negative rho (up, down):  2.564E-04 0.000E+00
 
     Adding external electric field

     Computed dipole along edir(3) : 
        Dipole               -0.0014 Ry au,         -0.0037 Debye
        Dipole field         -0.0000 Ry au, 
 
        Potential amp.        0.0002 Ry
        Total length         50.7188 bohr
 

     total cpu time spent up to now is     1659.6 secs

     total energy              =   -7221.11126964 Ry
     estimated scf accuracy    <       0.00000163 Ry

     iteration # 26     ecut=    62.47 Ry     beta= 0.15
     Davidson diagonalization with overlap
     ethr =  7.08E-10,  avg # of iterations =  3.0

     negative rho (up, down):  5.222E-05 0.000E+00
 
     Adding external electric field

     Computed dipole along edir(3) : 
        Dipole                0.0009 Ry au,          0.0023 Debye
        Dipole field          0.0000 Ry au, 
 
        Potential amp.       -0.0001 Ry
        Total length         50.7188 bohr
 

     total cpu time spent up to now is     1723.8 secs

     total energy              =   -7221.11126973 Ry
     estimated scf accuracy    <       0.00000149 Ry

     iteration # 27     ecut=    62.47 Ry     beta= 0.15
     Davidson diagonalization with overlap
     ethr =  6.46E-10,  avg # of iterations =  3.0

     negative rho (up, down):  8.911E-05 0.000E+00
 
     Adding external electric field

     Computed dipole along edir(3) : 
        Dipole                0.0039 Ry au,          0.0098 Debye
        Dipole field          0.0000 Ry au, 
 
        Potential amp.       -0.0006 Ry
        Total length         50.7188 bohr
 

     total cpu time spent up to now is     1785.7 secs

     End of self-consistent calculation

          k = 0.0000 0.0000 0.0000 ( 73705 PWs)   bands (ev):

   -50.5122 -50.5120 -50.0266 -50.0265 -49.8159 -49.8156 -49.7257 -49.7253
   -49.6587 -49.6586 -23.4077 -23.4075 -23.1651 -23.1650 -23.1649 -23.1647
   -22.8992 -22.8991 -22.7390 -22.7390 -22.7352 -22.7351 -22.6194 -22.6183
   -22.6160 -22.6157 -22.6099 -22.5937 -22.5284 -22.5280 -22.5189 -22.5184
   -22.5054 -22.5007 -22.4563 -22.4562 -22.4545 -22.4543 -22.4385 -22.4381
   -11.9521 -11.4612 -10.8499 -10.2182  -9.9791  -9.8650  -9.8280  -9.5909
    -9.3843  -9.3544  -9.1376  -9.1030  -9.0815  -9.0697  -9.0276  -8.7818
    -8.6841  -8.6771  -8.1341  -7.9085  -3.4073  -3.0487  -2.9855  -2.4367
    -2.2484  -1.9589  -1.8508  -1.7925  -1.6110  -1.4428  -1.1605  -1.0920
    -1.0785  -0.8285  -0.7794  -0.5518  -0.4196  -0.3898  -0.3683  -0.2054
    -0.1496   0.0319   0.0457   0.0964   0.1697   0.2358   0.2999   0.4598
     0.4667   0.5610   0.5982   0.6949   0.9116   0.9701   1.0149   1.0652
     1.1761   1.1995   1.3203   1.3851   1.3883   1.4725   1.5464   1.7581
     1.8373   1.8761   1.8967   2.0029   2.1503   2.2468   2.5688   2.5700
     3.4088   3.5009   3.8707   4.4496   4.5114   4.6448   4.8258   4.8440
     5.1284   5.1299   5.1424   5.1734   5.3199   5.3986   5.4564   5.5145
     5.6927   5.7347   5.7932   5.8390   5.8419   5.8471   5.8498   5.9321
     5.9923   6.0975   6.1312   6.1802   6.2210   6.3273   6.3639   6.4208
     6.4379

          k =-0.0471-0.0471 0.0926 ( 73716 PWs)   bands (ev):

   -50.5122 -50.5120 -50.0266 -50.0265 -49.8159 -49.8156 -49.7257 -49.7253
   -49.6587 -49.6586 -23.4077 -23.4075 -23.1651 -23.1650 -23.1649 -23.1647
   -22.8992 -22.8991 -22.7390 -22.7389 -22.7352 -22.7351 -22.6200 -22.6184
   -22.6153 -22.6151 -22.6094 -22.5944 -22.5285 -22.5279 -22.5193 -22.5181
   -22.5055 -22.5005 -22.4566 -22.4563 -22.4545 -22.4543 -22.4386 -22.4381
   -11.9432 -11.4562 -10.8488 -10.2190  -9.9803  -9.8672  -9.8650  -9.6018
    -9.3843  -9.3530  -9.1387  -9.0926  -9.0839  -9.0716  -9.0237  -8.7818
    -8.6746  -8.6689  -8.1341  -7.9085  -3.3809  -3.0197  -2.9656  -2.4332
    -2.2362  -1.9535  -1.8451  -1.7669  -1.6066  -1.3977  -1.1606  -1.0872
    -1.0775  -0.8359  -0.7695  -0.6396  -0.4333  -0.3706  -0.3274  -0.2319
    -0.1709  -0.0174   0.0173   0.0495   0.1464   0.1927   0.3793   0.4723
     0.5205   0.5610   0.6233   0.6716   0.7950   0.9952   1.0217   1.0457
     1.1997   1.2088   1.2487   1.4030   1.4353   1.4961   1.5447   1.6858
     1.8179   1.8262   1.9232   2.1012   2.1470   2.2554   2.2994   2.4526
     3.4427   3.5089   3.9579   4.4527   4.5879   4.6990   4.8412   4.8445
     5.0692   5.2065   5.2422   5.2494   5.3161   5.3997   5.4344   5.5034
     5.6373   5.7363   5.7887   5.8285   5.8586   5.8680   5.9770   6.0297
     6.0361   6.0906   6.2062   6.2246   6.2976   6.3542   6.3561   6.3852
     6.4505

          k =-0.0943-0.0943 0.1852 ( 73742 PWs)   bands (ev):

   -50.5122 -50.5120 -50.0266 -50.0265 -49.8159 -49.8156 -49.7257 -49.7253
   -49.6587 -49.6586 -23.4077 -23.4075 -23.1651 -23.1650 -23.1649 -23.1647
   -22.8992 -22.8991 -22.7390 -22.7389 -22.7352 -22.7351 -22.6209 -22.6186
   -22.6142 -22.6140 -22.6080 -22.5964 -22.5286 -22.5278 -22.5197 -22.5178
   -22.5056 -22.5000 -22.4571 -22.4565 -22.4545 -22.4543 -22.4387 -22.4382
   -11.9249 -11.4465 -10.8467 -10.2215  -9.9829  -9.9329  -9.8650  -9.6300
    -9.3843  -9.3540  -9.1412  -9.1017  -9.0882  -9.0452  -9.0162  -8.7818
    -8.6564  -8.6533  -8.1341  -7.9084  -3.3219  -2.9600  -2.9250  -2.4207
    -2.2125  -1.9328  -1.8398  -1.7162  -1.5932  -1.3753  -1.1607  -1.0991
    -1.0428  -0.8470  -0.7528  -0.7173  -0.5582  -0.3907  -0.3406  -0.2093
    -0.0901  -0.0584   0.0298   0.0617   0.1214   0.2029   0.3573   0.4281
     0.5224   0.5689   0.5912   0.6433   0.7884   0.8318   1.0813   1.1269
     1.1350   1.1541   1.2872   1.3444   1.3757   1.5046   1.5514   1.7242
     1.7638   1.7926   1.9386   2.0144   2.1218   2.1296   2.2420   2.2427
     3.4974   3.5194   4.1891   4.4784   4.7110   4.7575   4.8577   4.8785
     5.0526   5.2591   5.2636   5.2850   5.3545   5.4024   5.5135   5.5222
     5.6131   5.7073   5.8097   5.8453   5.8801   5.9546   6.0291   6.0950
     6.1405   6.1457   6.2043   6.2229   6.2677   6.3270   6.4496   6.5330
     6.5420

          k = 0.1414 0.1414-0.2779 ( 73724 PWs)   bands (ev):

   -50.5122 -50.5120 -50.0266 -50.0265 -49.8159 -49.8156 -49.7257 -49.7253
   -49.6587 -49.6586 -23.4077 -23.4075 -23.1651 -23.1650 -23.1648 -23.1646
   -22.8992 -22.8991 -22.7389 -22.7389 -22.7352 -22.7351 -22.6213 -22.6188
   -22.6139 -22.6134 -22.6067 -22.5978 -22.5287 -22.5278 -22.5199 -22.5177
   -22.5058 -22.4998 -22.4573 -22.4566 -22.4545 -22.4543 -22.4387 -22.4383
   -11.9154 -11.4418 -10.8458 -10.2235  -9.9773  -9.9683  -9.8650  -9.6447
    -9.3843  -9.3565  -9.1436  -9.1042  -9.0952  -9.0220  -9.0188  -8.7818
    -8.6478  -8.6458  -8.1341  -7.9084  -3.2882  -2.9313  -2.9027  -2.4148
    -2.2018  -1.8982  -1.8509  -1.6934  -1.5707  -1.4280  -1.1608  -1.0953
    -1.0211  -0.8398  -0.7693  -0.7491  -0.5910  -0.4100  -0.3766  -0.1377
    -0.1116   0.0057   0.0411   0.0974   0.1570   0.2093   0.2895   0.4203
     0.5129   0.5135   0.5982   0.6533   0.6618   0.9295   1.0559   1.0904
     1.1333   1.1637   1.2415   1.3483   1.3498   1.3774   1.5834   1.7004
     1.7233   1.8480   1.8945   1.9553   2.0716   2.0896   2.2397   2.2970
     3.5119   3.5233   4.3647   4.4973   4.7155   4.7726   4.8685   4.9010
     5.1496   5.1555   5.2355   5.2513   5.4136   5.4343   5.4612   5.5878
     5.7166   5.7260   5.8357   5.8403   5.9597   5.9731   6.0063   6.0653
     6.0740   6.1192   6.1664   6.2336   6.2672   6.3712   6.4497   6.4722
     6.4972

          k =-0.0566 0.0849-0.0278 ( 73733 PWs)   bands (ev):

   -50.5122 -50.5120 -50.0266 -50.0265 -49.8159 -49.8156 -49.7257 -49.7253
   -49.6587 -49.6586 -23.4077 -23.4076 -23.1655 -23.1654 -23.1649 -23.1647
   -22.8992 -22.8992 -22.7390 -22.7389 -22.7357 -22.7356 -22.6204 -22.6196
   -22.6165 -22.6160 -22.6091 -22.5938 -22.5286 -22.5282 -22.5186 -22.5182
   -22.5051 -22.5007 -22.4562 -22.4561 -22.4547 -22.4545 -22.4384 -22.4380
   -11.9152 -11.4251 -10.8146 -10.1832  -9.9470  -9.9427  -9.8091  -9.5706
    -9.4652  -9.3353  -9.1454  -9.0941  -9.0659  -9.0552  -9.0303  -8.8582
    -8.6842  -8.6776  -8.2141  -7.9890  -3.2478  -3.0183  -2.8367  -2.2905
    -2.2566  -1.9787  -1.7809  -1.7065  -1.4789  -1.4633  -1.2272  -1.1157
    -1.0599  -0.8638  -0.8435  -0.5090  -0.4650  -0.3910  -0.3643  -0.2443
    -0.1926  -0.0057   0.0530   0.0965   0.1365   0.2459   0.3678   0.4391
     0.4526   0.5550   0.6323   0.6831   0.9015   0.9200   0.9873   1.0667
     1.1307   1.2511   1.3558   1.3843   1.4022   1.4464   1.5038   1.7053
     1.8165   1.8567   1.8693   1.9589   2.0106   2.0884   2.5441   2.5994
     3.4475   3.4512   3.9864   4.1408   4.5317   4.5736   4.6902   4.9082
     5.0057   5.0242   5.1835   5.2179   5.2287   5.2759   5.4525   5.5205
     5.5883   5.6391   5.7311   5.7447   5.7924   5.8554   5.9052   5.9305
     5.9842   6.0391   6.1385   6.1571   6.2979   6.3352   6.3733   6.4361
     6.4434

          k =-0.1037 0.0377 0.0648 ( 73683 PWs)   bands (ev):

   -50.5122 -50.5120 -50.0266 -50.0265 -49.8159 -49.8156 -49.7257 -49.7253
   -49.6587 -49.6586 -23.4077 -23.4076 -23.1655 -23.1654 -23.1649 -23.1647
   -22.8993 -22.8992 -22.7390 -22.7389 -22.7357 -22.7356 -22.6207 -22.6194
   -22.6166 -22.6156 -22.6089 -22.5941 -22.5286 -22.5281 -22.5188 -22.5180
   -22.5051 -22.5006 -22.4563 -22.4561 -22.4546 -22.4545 -22.4384 -22.4381
   -11.9116 -11.4231 -10.8141 -10.1835  -9.9474  -9.9432  -9.8253  -9.5746
    -9.4655  -9.3347  -9.1456  -9.0877  -9.0690  -9.0552  -9.0294  -8.8588
    -8.6801  -8.6738  -8.2141  -7.9890  -3.2371  -3.0053  -2.8284  -2.2991
    -2.2392  -1.9704  -1.7714  -1.7029  -1.4744  -1.4416  -1.2299  -1.1212
    -1.0618  -0.8682  -0.8593  -0.5640  -0.4762  -0.3658  -0.3276  -0.2755
    -0.1984  -0.0154   0.0439   0.0771   0.1197   0.2588   0.3768   0.4551
     0.4605   0.5508   0.6147   0.6977   0.8859   0.9103   0.9903   1.0903
     1.1034   1.2634   1.3250   1.3990   1.4080   1.4509   1.5147   1.7153
     1.7973   1.8323   1.8617   1.9650   2.0258   2.1176   2.4469   2.5533
     3.4527   3.4614   4.0176   4.1483   4.5402   4.5860   4.7073   4.9074
     4.9922   5.0326   5.1918   5.2361   5.2631   5.2802   5.4428   5.5217
     5.5931   5.6296   5.7014   5.7172   5.8174   5.8474   5.9105   5.9461
     6.0342   6.0647   6.1685   6.1953   6.2894   6.3505   6.4117   6.4303
     6.4489

          k =-0.1508-0.0094 0.1575 ( 73733 PWs)   bands (ev):

   -50.5122 -50.5120 -50.0266 -50.0265 -49.8159 -49.8156 -49.7257 -49.7253
   -49.6587 -49.6586 -23.4077 -23.4076 -23.1655 -23.1654 -23.1648 -23.1646
   -22.8993 -22.8992 -22.7389 -22.7389 -22.7357 -22.7356 -22.6215 -22.6191
   -22.6163 -22.6145 -22.6076 -22.5957 -22.5286 -22.5281 -22.5193 -22.5177
   -22.5054 -22.5000 -22.4568 -22.4564 -22.4546 -22.4545 -22.4385 -22.4382
   -11.8947 -11.4139 -10.8121 -10.1856  -9.9497  -9.9456  -9.8887  -9.5989
    -9.4666  -9.3343  -9.1464  -9.0827  -9.0687  -9.0511  -9.0193  -8.8611
    -8.6625  -8.6573  -8.2138  -7.9888  -3.1833  -2.9433  -2.7912  -2.2868
    -2.2035  -1.9377  -1.7275  -1.6823  -1.4749  -1.3724  -1.2381  -1.1457
    -1.0889  -0.8903  -0.8553  -0.7050  -0.4936  -0.4077  -0.3763  -0.2746
    -0.1275  -0.1020   0.0078   0.0660   0.1855   0.1968   0.3423   0.4870
     0.5168   0.5412   0.5964   0.7519   0.7751   0.9031   0.9869   1.0433
     1.1680   1.2302   1.2429   1.3977   1.4264   1.5131   1.5554   1.6670
     1.7650   1.8066   1.8663   1.9504   2.0261   2.1789   2.2455   2.2621
     3.4564   3.5192   4.1429   4.2225   4.5682   4.6374   4.7738   4.9152
     4.9866   5.0498   5.1709   5.2263   5.3261   5.3812   5.4829   5.5679
     5.5975   5.5990   5.6540   5.7395   5.7821   5.8156   5.8968   6.0024
     6.0458   6.1529   6.2052   6.2753   6.3169   6.3844   6.4411   6.4642
     6.5418

          k = 0.0849 0.2263-0.3057 ( 73743 PWs)   bands (ev):

   -50.5122 -50.5120 -50.0266 -50.0265 -49.8158 -49.8156 -49.7257 -49.7253
   -49.6587 -49.6586 -23.4077 -23.4076 -23.1655 -23.1654 -23.1648 -23.1646
   -22.8993 -22.8992 -22.7389 -22.7389 -22.7357 -22.7356 -22.6221 -22.6191
   -22.6158 -22.6139 -22.6059 -22.5976 -22.5287 -22.5281 -22.5195 -22.5175
   -22.5057 -22.4997 -22.4571 -22.4566 -22.4546 -22.4545 -22.4386 -22.4382
   -11.8810 -11.4070 -10.8107 -10.1883  -9.9488  -9.9460  -9.9348  -9.6198
    -9.4674  -9.3371  -9.1477  -9.0873  -9.0794  -9.0238  -9.0157  -8.8625
    -8.6500  -8.6449  -8.2135  -7.9888  -3.1345  -2.8909  -2.7639  -2.2606
    -2.1841  -1.9081  -1.7037  -1.6385  -1.4800  -1.4458  -1.2381  -1.1529
    -1.0947  -0.9037  -0.7764  -0.7461  -0.5584  -0.4718  -0.4256  -0.2635
    -0.1486  -0.0603  -0.0219   0.1081   0.1994   0.2211   0.3723   0.4197
     0.4409   0.5462   0.6415   0.6828   0.7795   0.8950   1.0351   1.0955
     1.1244   1.2290   1.2632   1.3051   1.3835   1.4338   1.5370   1.6599
     1.7504   1.8388   1.8867   1.9032   2.0018   2.0811   2.1196   2.3212
     3.4571   3.5455   4.1709   4.4080   4.5851   4.6373   4.8496   4.8960
     5.0470   5.0679   5.0961   5.2048   5.3709   5.4125   5.5317   5.5757
     5.6030   5.6077   5.7074   5.7228   5.7319   5.8923   5.9235   5.9732
     6.0210   6.0894   6.1506   6.2129   6.2793   6.3573   6.4692   6.5235
     6.5808

          k = 0.0377 0.1791-0.2130 ( 73752 PWs)   bands (ev):

   -50.5122 -50.5120 -50.0266 -50.0265 -49.8159 -49.8156 -49.7257 -49.7253
   -49.6587 -49.6586 -23.4077 -23.4076 -23.1655 -23.1654 -23.1648 -23.1646
   -22.8993 -22.8992 -22.7389 -22.7389 -22.7357 -22.7356 -22.6219 -22.6191
   -22.6159 -22.6140 -22.6065 -22.5970 -22.5287 -22.5281 -22.5194 -22.5176
   -22.5056 -22.4998 -22.4570 -22.4565 -22.4546 -22.4545 -22.4386 -22.4382
   -11.8849 -11.4089 -10.8111 -10.1874  -9.9503  -9.9466  -9.9204  -9.6140
    -9.4672  -9.3361  -9.1472  -9.0861  -9.0763  -9.0333  -9.0149  -8.8622
    -8.6534  -8.6484  -8.2136  -7.9888  -3.1489  -2.9060  -2.7713  -2.2676
    -2.1905  -1.9179  -1.7087  -1.6567  -1.4781  -1.4078  -1.2388  -1.1535
    -1.0973  -0.8955  -0.8090  -0.7413  -0.5291  -0.4570  -0.4133  -0.2648
    -0.1382  -0.0816   0.0028   0.0738   0.1949   0.2159   0.3466   0.4525
     0.4753   0.5539   0.6255   0.6796   0.8127   0.8891   0.9915   1.0576
     1.1579   1.2460   1.2600   1.3232   1.4067   1.4828   1.5312   1.6682
     1.7539   1.8512   1.8692   1.8781   2.0434   2.1007   2.1364   2.3001
     3.4571   3.5399   4.1653   4.3440   4.5810   4.6442   4.8192   4.9107
     5.0207   5.0610   5.1268   5.2116   5.3646   5.3866   5.5447   5.5554
     5.5978   5.6140   5.7114   5.7201   5.7532   5.8407   5.8891   5.9790
     6.0436   6.1024   6.1782   6.2924   6.3241   6.3435   6.4652   6.4766
     6.5400

          k =-0.0094 0.1320-0.1204 ( 73725 PWs)   bands (ev):

   -50.5122 -50.5120 -50.0266 -50.0265 -49.8159 -49.8156 -49.7257 -49.7253
   -49.6587 -49.6586 -23.4077 -23.4076 -23.1655 -23.1654 -23.1648 -23.1646
   -22.8993 -22.8992 -22.7390 -22.7389 -22.7357 -22.7356 -22.6212 -22.6192
   -22.6165 -22.6149 -22.6082 -22.5949 -22.5286 -22.5281 -22.5191 -22.5178
   -22.5053 -22.5003 -22.4566 -22.4563 -22.4546 -22.4545 -22.4385 -22.4381
   -11.9022 -11.4179 -10.8129 -10.1846  -9.9486  -9.9445  -9.8627  -9.5875
    -9.4662  -9.3339  -9.1460  -9.0804  -9.0670  -9.0588  -9.0241  -8.8601
    -8.6700  -8.6643  -8.2139  -7.9889  -3.2078  -2.9711  -2.8073  -2.2976
    -2.2153  -1.9515  -1.7460  -1.6932  -1.4739  -1.3891  -1.2353  -1.1358
    -1.0741  -0.8901  -0.8631  -0.6555  -0.4868  -0.3625  -0.3436  -0.2982
    -0.1592  -0.0663   0.0136   0.0629   0.1671   0.2110   0.3595   0.4768
     0.5150   0.5424   0.6006   0.7246   0.8131   0.9150   0.9843   1.0844
     1.1205   1.2427   1.2696   1.4074   1.4254   1.4936   1.5514   1.6988
     1.7516   1.8082   1.8653   1.9763   2.0291   2.1825   2.2779   2.3887
     3.4553   3.4968   4.0991   4.1732   4.5571   4.6184   4.7456   4.9107
     4.9805   5.0427   5.1896   5.2359   5.2957   5.3904   5.4102   5.5382
     5.5966   5.6154   5.6630   5.7323   5.7892   5.8506   5.9031   5.9596
     6.0776   6.1526   6.1876   6.2346   6.3076   6.3647   6.4303   6.4826
     6.5086

          k =-0.1131 0.1697-0.0556 ( 73727 PWs)   bands (ev):

   -50.5122 -50.5120 -50.0266 -50.0265 -49.8158 -49.8156 -49.7257 -49.7253
   -49.6587 -49.6586 -23.4077 -23.4076 -23.1665 -23.1664 -23.1648 -23.1646
   -22.8994 -22.8993 -22.7389 -22.7388 -22.7370 -22.7369 -22.6229 -22.6222
   -22.6180 -22.6170 -22.6071 -22.5942 -22.5290 -22.5286 -22.5183 -22.5173
   -22.5044 -22.5004 -22.4560 -22.4559 -22.4552 -22.4549 -22.4382 -22.4380
   -11.8059 -11.3180 -10.7096 -10.1600 -10.0795  -9.8438  -9.7525  -9.6822
    -9.5112  -9.2834  -9.1779  -9.1089  -9.0673  -9.0243  -9.0121  -9.0025
    -8.6869  -8.6818  -8.4278  -8.2050  -2.9436  -2.7955  -2.3976  -2.2951
    -2.0394  -1.8334  -1.7483  -1.5869  -1.4245  -1.2596  -1.1426  -1.0770
    -1.0603  -0.9926  -0.8873  -0.6282  -0.4637  -0.4258  -0.3290  -0.3116
    -0.2414  -0.1397  -0.0135   0.0861   0.1628   0.3011   0.3347   0.4424
     0.4945   0.5677   0.5721   0.6938   0.7722   0.8545   0.9818   1.1208
     1.1997   1.2385   1.2884   1.3467   1.3621   1.4229   1.4441   1.5465
     1.5985   1.6451   1.7664   1.8952   1.9435   2.1588   2.4998   2.5905
     3.2749   3.3573   3.5599   3.7603   4.2156   4.3643   4.5852   4.6958
     4.7334   4.8763   4.9607   5.1425   5.1918   5.1971   5.3118   5.4312
     5.5190   5.5893   5.6987   5.7130   5.7678   5.8387   5.8620   5.9413
     6.0237   6.0797   6.1267   6.1900   6.2493   6.3050   6.4391   6.5028
     6.5729

          k =-0.1603 0.1226 0.0370 ( 73745 PWs)   bands (ev):

   -50.5122 -50.5120 -50.0266 -50.0265 -49.8158 -49.8156 -49.7257 -49.7253
   -49.6587 -49.6586 -23.4077 -23.4076 -23.1665 -23.1664 -23.1648 -23.1646
   -22.8994 -22.8993 -22.7389 -22.7388 -22.7370 -22.7369 -22.6228 -22.6223
   -22.6179 -22.6172 -22.6072 -22.5941 -22.5290 -22.5286 -22.5183 -22.5173
   -22.5044 -22.5005 -22.4560 -22.4558 -22.4552 -22.4549 -22.4382 -22.4380
   -11.8076 -11.3190 -10.7099 -10.1595 -10.0793  -9.8433  -9.7452  -9.6820
    -9.5093  -9.2836  -9.1784  -9.1088  -9.0724  -9.0213  -9.0125  -9.0013
    -8.6886  -8.6840  -8.4280  -8.2050  -2.9508  -2.8009  -2.4023  -2.2961
    -2.0519  -1.8361  -1.7539  -1.6063  -1.4211  -1.2538  -1.1354  -1.0759
    -1.0524  -0.9845  -0.8760  -0.6010  -0.4538  -0.4227  -0.3410  -0.3284
    -0.2222  -0.1253  -0.0470   0.0943   0.1584   0.3179   0.3338   0.4285
     0.4963   0.5703   0.5917   0.6933   0.7760   0.8436   0.9720   1.1159
     1.2057   1.2460   1.2935   1.3588   1.3605   1.4150   1.4241   1.5343
     1.5821   1.6455   1.7618   1.9131   1.9549   2.1400   2.5439   2.6104
     3.2723   3.3553   3.5521   3.7595   4.2136   4.3543   4.5891   4.6935
     4.7257   4.8760   4.9643   5.1452   5.1955   5.2026   5.2936   5.4131
     5.5247   5.6003   5.7133   5.7180   5.7741   5.8253   5.8868   5.9513
     6.0038   6.0716   6.1117   6.1836   6.2208   6.3104   6.4540   6.4952
     6.5588

          k =-0.2074 0.0754 0.1297 ( 73719 PWs)   bands (ev):

   -50.5122 -50.5120 -50.0266 -50.0265 -49.8158 -49.8156 -49.7257 -49.7253
   -49.6587 -49.6586 -23.4077 -23.4076 -23.1665 -23.1664 -23.1648 -23.1646
   -22.8994 -22.8993 -22.7389 -22.7388 -22.7370 -22.7368 -22.6235 -22.6215
   -22.6185 -22.6162 -22.6062 -22.5953 -22.5290 -22.5285 -22.5184 -22.5173
   -22.5048 -22.4999 -22.4562 -22.4561 -22.4551 -22.4549 -22.4382 -22.4380
   -11.7943 -11.3116 -10.7082 -10.1630 -10.0809  -9.8486  -9.7950  -9.6838
    -9.5268  -9.2822  -9.1745  -9.1054  -9.0431  -9.0323  -9.0199  -9.0062
    -8.6753  -8.6687  -8.4263  -8.2046  -2.8928  -2.7570  -2.3663  -2.2668
    -1.9722  -1.8205  -1.6997  -1.4805  -1.4431  -1.2991  -1.1720  -1.1663
    -1.0556  -1.0123  -0.9688  -0.7280  -0.5727  -0.4118  -0.3446  -0.3017
    -0.2294  -0.1247  -0.0208   0.0851   0.1583   0.1910   0.4280   0.4449
     0.4669   0.5384   0.6145   0.7010   0.7782   0.9117   0.9550   1.0866
     1.1526   1.2637   1.2927   1.3254   1.4122   1.4193   1.5522   1.5820
     1.6513   1.6650   1.7559   1.8430   1.8922   2.2365   2.2821   2.4169
     3.2814   3.3806   3.5960   3.7720   4.2242   4.4414   4.5624   4.7141
     4.7701   4.8841   4.9495   5.1308   5.1558   5.1929   5.4129   5.4555
     5.4954   5.6125   5.6536   5.6934   5.7120   5.7501   5.8819   5.9349
     5.9722   6.0971   6.1712   6.1918   6.3126   6.3764   6.4982   6.5478
     6.6263

          k = 0.0283 0.3111-0.3334 ( 73697 PWs)   bands (ev):

   -50.5122 -50.5120 -50.0266 -50.0265 -49.8158 -49.8156 -49.7257 -49.7253
   -49.6587 -49.6586 -23.4077 -23.4076 -23.1665 -23.1664 -23.1648 -23.1645
   -22.8994 -22.8993 -22.7389 -22.7388 -22.7370 -22.7368 -22.6240 -22.6205
   -22.6191 -22.6155 -22.6044 -22.5973 -22.5290 -22.5285 -22.5185 -22.5172
   -22.5053 -22.4993 -22.4565 -22.4564 -22.4550 -22.4549 -22.4383 -22.4381
   -11.7786 -11.3034 -10.7065 -10.1669 -10.0839  -9.8621  -9.8342  -9.6860
    -9.5495  -9.2838  -9.1703  -9.0975  -9.0443  -9.0367  -9.0175  -8.9989
    -8.6624  -8.6528  -8.4239  -8.2042  -2.8201  -2.6982  -2.3282  -2.1684
    -1.9268  -1.8236  -1.6282  -1.4964  -1.4427  -1.2847  -1.2776  -1.2124
    -1.1163  -1.0054  -0.8834  -0.8056  -0.6231  -0.5214  -0.4295  -0.3444
    -0.2676  -0.1436  -0.0226   0.0095   0.1690   0.2540   0.3750   0.4542
     0.4934   0.5659   0.6469   0.7182   0.8874   0.9394   0.9924   1.0621
     1.1390   1.1776   1.2890   1.3075   1.4339   1.4938   1.5058   1.5613
     1.6714   1.7159   1.7542   1.8490   1.9259   2.0687   2.1099   2.3750
     3.2751   3.4050   3.6211   3.8036   4.2369   4.5233   4.5641   4.7282
     4.8083   4.9071   4.9750   5.1088   5.1274   5.2137   5.3782   5.4833
     5.5195   5.5726   5.5960   5.6822   5.7345   5.8024   5.8164   5.9087
     5.9364   6.0101   6.0743   6.1774   6.3252   6.4479   6.6021   6.6258
     6.6625

          k =-0.0189 0.2640-0.2408 ( 73710 PWs)   bands (ev):

   -50.5122 -50.5120 -50.0266 -50.0265 -49.8158 -49.8156 -49.7257 -49.7253
   -49.6587 -49.6586 -23.4077 -23.4076 -23.1665 -23.1664 -23.1648 -23.1645
   -22.8994 -22.8993 -22.7388 -22.7388 -22.7370 -22.7368 -22.6241 -22.6203
   -22.6192 -22.6155 -22.6042 -22.5976 -22.5290 -22.5285 -22.5185 -22.5172
   -22.5053 -22.4993 -22.4566 -22.4564 -22.4550 -22.4549 -22.4383 -22.4381
   -11.7767 -11.3025 -10.7063 -10.1673 -10.0844  -9.8645  -9.8375  -9.6863
    -9.5521  -9.2843  -9.1699  -9.0967  -9.0444  -9.0379  -9.0186  -8.9960
    -8.6611  -8.6510  -8.4236  -8.2042  -2.8111  -2.6905  -2.3244  -2.1491
    -1.9277  -1.8253  -1.6186  -1.5181  -1.4415  -1.2821  -1.2654  -1.2185
    -1.1438  -1.0022  -0.8407  -0.8164  -0.6292  -0.5351  -0.4535  -0.3578
    -0.2687  -0.1648  -0.0121   0.0118   0.1692   0.2524   0.3872   0.4551
     0.5010   0.5514   0.6366   0.7483   0.8840   0.9303   1.0023   1.1007
     1.1479   1.1681   1.2728   1.2787   1.4441   1.4734   1.5127   1.5497
     1.6814   1.7361   1.7515   1.8419   1.9390   2.0551   2.0740   2.3819
     3.2741   3.4072   3.6227   3.8080   4.2390   4.5222   4.5742   4.7288
     4.8134   4.9092   4.9860   5.1054   5.1230   5.2183   5.3626   5.4979
     5.5244   5.5655   5.5827   5.7007   5.7192   5.7880   5.8251   5.9220
     5.9446   6.0004   6.0487   6.1433   6.3124   6.4714   6.6087   6.6287
     6.6954

          k =-0.0660 0.2168-0.1482 ( 73712 PWs)   bands (ev):

   -50.5122 -50.5120 -50.0266 -50.0265 -49.8158 -49.8156 -49.7257 -49.7253
   -49.6587 -49.6586 -23.4077 -23.4076 -23.1665 -23.1664 -23.1648 -23.1646
   -22.8994 -22.8993 -22.7389 -22.7388 -22.7370 -22.7368 -22.6236 -22.6213
   -22.6186 -22.6160 -22.6059 -22.5957 -22.5290 -22.5285 -22.5185 -22.5172
   -22.5049 -22.4998 -22.4563 -22.4562 -22.4551 -22.4549 -22.4382 -22.4381
   -11.7907 -11.3097 -10.7078 -10.1639 -10.0814  -9.8508  -9.8057  -9.6843
    -9.5319  -9.2823  -9.1735  -9.1036  -9.0422  -9.0303  -9.0212  -9.0070
    -8.6721  -8.6650  -8.4258  -8.2045  -2.8769  -2.7445  -2.3572  -2.2516
    -1.9569  -1.8191  -1.6836  -1.4604  -1.4469  -1.3055  -1.2044  -1.1762
    -1.0484  -1.0082  -0.9901  -0.7452  -0.5936  -0.4333  -0.3460  -0.3008
    -0.2496  -0.0970  -0.0241   0.0400   0.1550   0.2114   0.4204   0.4430
     0.4683   0.5458   0.6293   0.7096   0.7929   0.9199   0.9578   1.0625
     1.1344   1.2640   1.2945   1.3426   1.4127   1.4339   1.5604   1.5838
     1.6509   1.6771   1.7452   1.8507   1.8859   2.2070   2.2621   2.3751
     3.2807   3.3872   3.6035   3.7778   4.2265   4.4661   4.5566   4.7186
     4.7786   4.8886   4.9498   5.1284   5.1464   5.1955   5.4320   5.4499
     5.4867   5.6432   5.6471   5.6713   5.6855   5.7577   5.8683   5.9381
     5.9620   6.0822   6.1621   6.1883   6.3191   6.4258   6.4928   6.5766
     6.6375

          k =-0.1697 0.2546-0.0834 ( 73690 PWs)   bands (ev):

   -50.5122 -50.5120 -50.0266 -50.0265 -49.8158 -49.8156 -49.7257 -49.7253
   -49.6587 -49.6586 -23.4077 -23.4076 -23.1677 -23.1677 -23.1647 -23.1645
   -22.8996 -22.8995 -22.7388 -22.7388 -22.7385 -22.7384 -22.6256 -22.6251
   -22.6199 -22.6185 -22.6046 -22.5952 -22.5296 -22.5290 -22.5180 -22.5163
   -22.5039 -22.4999 -22.4560 -22.4557 -22.4555 -22.4553 -22.4379 -22.4378
   -11.6287 -11.1438 -10.5388 -10.4565  -9.9829  -9.9067  -9.6932  -9.6483
    -9.4243  -9.3858  -9.2391  -9.2074  -9.0632  -9.0498  -8.9554  -8.9482
    -8.7378  -8.6964  -8.6745  -8.4985  -2.8076  -2.3043  -2.1173  -2.0249
    -1.7709  -1.7134  -1.6901  -1.5813  -1.4182  -1.2404  -1.1121  -1.0529
    -0.9880  -0.7799  -0.6957  -0.6525  -0.4563  -0.3879  -0.3170  -0.2936
    -0.2273  -0.1252  -0.0713   0.0518   0.1915   0.2178   0.3089   0.3805
     0.4646   0.5470   0.5919   0.6634   0.7006   0.8307   0.9482   1.0238
     1.0709   1.2037   1.2422   1.2797   1.3394   1.3588   1.3699   1.4283
     1.5221   1.7066   1.7536   1.8894   1.9419   2.1019   2.1988   2.4710
     2.5728   2.8726   3.0583   3.2811   3.6957   3.7314   3.8326   4.5616
     4.7495   4.8619   4.9651   5.1863   5.2206   5.3840   5.4708   5.5238
     5.5648   5.6511   5.7112   5.7834   5.7951   5.8415   5.9116   5.9497
     5.9611   6.0258   6.1424   6.1943   6.3195   6.4372   6.4634   6.5417
     6.5950

          k =-0.2168 0.2074 0.0093 ( 73710 PWs)   bands (ev):

   -50.5122 -50.5120 -50.0266 -50.0265 -49.8158 -49.8156 -49.7257 -49.7253
   -49.6587 -49.6586 -23.4077 -23.4076 -23.1677 -23.1677 -23.1647 -23.1645
   -22.8996 -22.8995 -22.7388 -22.7388 -22.7385 -22.7384 -22.6255 -22.6253
   -22.6195 -22.6190 -22.6050 -22.5947 -22.5295 -22.5290 -22.5181 -22.5162
   -22.5035 -22.5003 -22.4558 -22.4557 -22.4555 -22.4553 -22.4378 -22.4378
   -11.6348 -11.1472 -10.5396 -10.4537  -9.9815  -9.9057  -9.6836  -9.6327
    -9.4181  -9.3863  -9.2443  -9.2079  -9.0636  -9.0626  -8.9515  -8.9406
    -8.7289  -8.7035  -8.6896  -8.4995  -2.8386  -2.3109  -2.1381  -2.0916
    -1.8010  -1.7227  -1.7025  -1.6404  -1.3450  -1.2515  -1.0628  -1.0320
    -0.9200  -0.7653  -0.5816  -0.5451  -0.4905  -0.3821  -0.3597  -0.3214
    -0.2014  -0.1792  -0.0582   0.0175   0.1170   0.2486   0.2801   0.4423
     0.5301   0.5830   0.6221   0.6569   0.7477   0.8058   0.8376   0.9747
     1.1037   1.1359   1.1955   1.2252   1.3418   1.3454   1.3806   1.4514
     1.5249   1.7055   1.7129   1.9556   2.0267   2.0567   2.1988   2.5258
     2.6803   2.8128   3.0544   3.2855   3.6969   3.7071   3.8258   4.5835
     4.7363   4.8614   4.9236   5.1862   5.2306   5.4023   5.4240   5.5436
     5.6069   5.6741   5.7263   5.7787   5.8253   5.8540   5.8896   5.9600
     5.9664   6.0619   6.1143   6.1423   6.2421   6.3754   6.5134   6.5519
     6.6137

          k =-0.2640 0.1603 0.1019 ( 73693 PWs)   bands (ev):

   -50.5122 -50.5120 -50.0266 -50.0265 -49.8158 -49.8156 -49.7257 -49.7253
   -49.6587 -49.6586 -23.4077 -23.4076 -23.1677 -23.1677 -23.1647 -23.1645
   -22.8996 -22.8995 -22.7388 -22.7388 -22.7385 -22.7384 -22.6257 -22.6249
   -22.6201 -22.6183 -22.6044 -22.5954 -22.5296 -22.5289 -22.5179 -22.5164
   -22.5040 -22.4998 -22.4560 -22.4557 -22.4555 -22.4553 -22.4379 -22.4379
   -11.6260 -11.1423 -10.5385 -10.4578  -9.9836  -9.9072  -9.6989  -9.6532
    -9.4275  -9.3857  -9.2367  -9.2072  -9.0630  -9.0443  -8.9570  -8.9514
    -8.7407  -8.6936  -8.6687  -8.4981  -2.7932  -2.2958  -2.1079  -1.9989
    -1.7575  -1.7147  -1.6818  -1.5511  -1.4450  -1.2403  -1.1296  -1.0714
    -1.0204  -0.7994  -0.7201  -0.6630  -0.4581  -0.3916  -0.3336  -0.2827
    -0.2087  -0.1192  -0.0854   0.0819   0.1635   0.2201   0.3412   0.3457
     0.4442   0.5466   0.6029   0.6677   0.6978   0.8350   0.9507   1.0506
     1.0935   1.2185   1.2384   1.2765   1.3413   1.3585   1.3827   1.4490
     1.5130   1.7086   1.7640   1.8646   1.9246   2.0695   2.2210   2.4304
     2.5735   2.8775   3.0579   3.2797   3.6928   3.7433   3.8353   4.5525
     4.7515   4.8624   4.9862   5.1895   5.2177   5.3770   5.4792   5.5107
     5.5586   5.6425   5.7155   5.7705   5.7916   5.8296   5.9205   5.9363
     5.9535   6.0412   6.1518   6.1818   6.3336   6.4358   6.5188   6.5355
     6.5922

          k =-0.0283 0.3960-0.3612 ( 73681 PWs)   bands (ev):

   -50.5122 -50.5120 -50.0266 -50.0265 -49.8158 -49.8156 -49.7257 -49.7253
   -49.6587 -49.6586 -23.4077 -23.4076 -23.1677 -23.1677 -23.1647 -23.1645
   -22.8996 -22.8995 -22.7388 -22.7388 -22.7384 -22.7383 -22.6263 -22.6238
   -22.6209 -22.6177 -22.6028 -22.5971 -22.5297 -22.5288 -22.5176 -22.5167
   -22.5046 -22.4991 -22.4563 -22.4559 -22.4555 -22.4553 -22.4380 -22.4379
   -11.6108 -11.1342 -10.5368 -10.4646  -9.9872  -9.9111  -9.7358  -9.6685
    -9.4463  -9.3851  -9.2234  -9.2084  -9.0612  -9.0153  -8.9694  -8.9631
    -8.7543  -8.6790  -8.6421  -8.4955  -2.7074  -2.1871  -2.0468  -1.9076
    -1.7309  -1.6936  -1.6223  -1.5686  -1.3976  -1.3550  -1.2399  -1.1280
    -1.0506  -0.8672  -0.8495  -0.6657  -0.5157  -0.4777  -0.4153  -0.3065
    -0.1928  -0.1268  -0.0392   0.0712   0.1855   0.1900   0.2376   0.3370
     0.4907   0.5470   0.5874   0.7620   0.8469   0.8880   0.9725   1.0675
     1.1467   1.2128   1.2416   1.2829   1.3386   1.3838   1.4317   1.5264
     1.5938   1.6345   1.7308   1.7662   1.9147   1.9676   2.0983   2.3695
     2.6381   2.8727   3.0453   3.2743   3.6780   3.7982   3.8462   4.5027
     4.7315   4.8775   5.1214   5.2067   5.2488   5.3159   5.4082   5.4970
     5.5589   5.6017   5.6450   5.6998   5.7910   5.8356   5.8847   5.9246
     5.9720   6.0009   6.1355   6.2009   6.3186   6.5066   6.5154   6.6459
     6.7094

          k =-0.0754 0.3488-0.2686 ( 73642 PWs)   bands (ev):

   -50.5122 -50.5120 -50.0266 -50.0265 -49.8158 -49.8156 -49.7257 -49.7253
   -49.6587 -49.6586 -23.4077 -23.4076 -23.1677 -23.1677 -23.1647 -23.1645
   -22.8996 -22.8995 -22.7389 -22.7388 -22.7384 -22.7383 -22.6265 -22.6231
   -22.6214 -22.6176 -22.6018 -22.5982 -22.5298 -22.5287 -22.5174 -22.5169
   -22.5048 -22.4988 -22.4563 -22.4559 -22.4555 -22.4553 -22.4380 -22.4380
   -11.6043 -11.1310 -10.5362 -10.4673  -9.9887  -9.9137  -9.7499  -9.6734
    -9.4540  -9.3850  -9.2171  -9.2105  -9.0604  -9.0043  -8.9755  -8.9652
    -8.7596  -8.6732  -8.6327  -8.4944  -2.6679  -2.0656  -2.0137  -1.9403
    -1.7709  -1.7121  -1.6046  -1.4947  -1.4502  -1.4219  -1.2678  -1.0881
    -0.9883  -0.9036  -0.8417  -0.6824  -0.5986  -0.5419  -0.4522  -0.3342
    -0.2962  -0.1144   0.0441   0.0972   0.1468   0.1947   0.2789   0.3214
     0.4570   0.5387   0.6428   0.8194   0.8411   0.9197   0.9860   1.0468
     1.1919   1.2016   1.2490   1.2847   1.3843   1.3994   1.4460   1.5305
     1.5626   1.6668   1.6680   1.7262   1.9423   1.9646   1.9972   2.3470
     2.6793   2.8770   3.0408   3.2718   3.6726   3.8172   3.8473   4.4822
     4.7137   4.8859   5.1950   5.2151   5.2576   5.3218   5.3433   5.4793
     5.5313   5.5902   5.6572   5.7104   5.7576   5.7720   5.9075   5.9554
     6.0051   6.0232   6.0616   6.0630   6.2588   6.6101   6.6675   6.6791
     6.7703

          k =-0.1226 0.3017-0.1760 ( 73678 PWs)   bands (ev):

   -50.5122 -50.5120 -50.0266 -50.0265 -49.8158 -49.8156 -49.7257 -49.7253
   -49.6587 -49.6586 -23.4077 -23.4076 -23.1677 -23.1677 -23.1647 -23.1645
   -22.8996 -22.8995 -22.7388 -22.7388 -22.7385 -22.7383 -22.6262 -22.6240
   -22.6207 -22.6178 -22.6032 -22.5968 -22.5297 -22.5288 -22.5177 -22.5166
   -22.5045 -22.4992 -22.4562 -22.4559 -22.4555 -22.4553 -22.4379 -22.4379
   -11.6136 -11.1357 -10.5371 -10.4634  -9.9866  -9.9102  -9.7291  -9.6663
    -9.4428  -9.3851  -9.2260  -9.2079  -9.0616  -9.0204  -8.9666  -8.9618
    -8.7520  -8.6816  -8.6464  -8.4960  -2.7240  -2.2174  -2.0597  -1.9139
    -1.7320  -1.6996  -1.6244  -1.5604  -1.4099  -1.3346  -1.2037  -1.1397
    -1.0669  -0.8560  -0.8303  -0.6619  -0.5000  -0.4559  -0.4057  -0.2718
    -0.1699  -0.1564  -0.0276   0.0380   0.1812   0.2045   0.2427   0.3510
     0.4811   0.5485   0.5810   0.7451   0.8254   0.8612   0.9612   1.0790
     1.1581   1.2159   1.2308   1.2859   1.3324   1.3763   1.4180   1.5136
     1.5773   1.6629   1.7488   1.7748   1.9093   1.9729   2.1399   2.3741
     2.6207   2.8737   3.0479   3.2753   3.6805   3.7894   3.8448   4.5118
     4.7380   4.8738   5.0938   5.2040   5.2376   5.3297   5.4232   5.4939
     5.5836   5.5994   5.6581   5.7075   5.7943   5.8266   5.8845   5.9214
     5.9797   6.0218   6.1470   6.2029   6.3185   6.4749   6.5368   6.6113
     6.7013

          k =-0.2263 0.3394-0.1111 ( 73646 PWs)   bands (ev):

   -50.5122 -50.5120 -50.0266 -50.0265 -49.8158 -49.8156 -49.7257 -49.7253
   -49.6587 -49.6586 -23.4078 -23.4076 -23.1687 -23.1687 -23.1647 -23.1645
   -22.8997 -22.8996 -22.7398 -22.7397 -22.7387 -22.7386 -22.6276 -22.6272
   -22.6216 -22.6199 -22.6020 -22.5966 -22.5302 -22.5292 -22.5175 -22.5158
   -22.5035 -22.4994 -22.4563 -22.4559 -22.4554 -22.4552 -22.4377 -22.4377
   -11.3911 -10.9094 -10.7843 -10.3075 -10.3068  -9.7104  -9.6822  -9.5644
    -9.4378  -9.3469  -9.3013  -9.1524  -9.1173  -9.0951  -9.0018  -8.9073
    -8.8729  -8.8146  -8.7089  -8.7042  -2.6004  -2.2433  -2.0152  -1.9185
    -1.8121  -1.5935  -1.5274  -1.3980  -1.3491  -1.1486  -1.0455  -0.9287
    -0.8341  -0.7516  -0.7046  -0.5048  -0.4361  -0.3528  -0.2658  -0.1170
    -0.0643   0.0422   0.0885   0.1596   0.2471   0.3514   0.3629   0.4121
     0.5322   0.5344   0.6090   0.6161   0.7078   0.8012   0.8748   0.9331
     0.9802   1.0633   1.0864   1.1711   1.2355   1.2846   1.3812   1.4429
     1.5255   1.5529   1.5923   1.6970   1.7600   1.9045   2.0229   2.1672
     2.2259   2.4078   2.6219   2.6961   2.7356   3.0069   3.9271   4.3896
     4.8712   4.9015   5.2445   5.2672   5.3921   5.5138   5.5326   5.6406
     5.7121   5.7719   5.8205   5.8593   5.8948   5.9608   5.9988   6.0504
     6.0873   6.1517   6.1784   6.2782   6.3699   6.4879   6.5461   6.5617
     6.6362

          k =-0.2734 0.2923-0.0185 ( 73700 PWs)   bands (ev):

   -50.5122 -50.5120 -50.0266 -50.0265 -49.8158 -49.8156 -49.7257 -49.7253
   -49.6587 -49.6586 -23.4078 -23.4076 -23.1687 -23.1687 -23.1647 -23.1645
   -22.8997 -22.8996 -22.7398 -22.7397 -22.7387 -22.7386 -22.6277 -22.6271
   -22.6214 -22.6201 -22.6027 -22.5959 -22.5302 -22.5293 -22.5177 -22.5156
   -22.5032 -22.4997 -22.4562 -22.4559 -22.4554 -22.4552 -22.4377 -22.4376
   -11.3998 -10.9143 -10.7781 -10.3085 -10.3035  -9.7100  -9.6798  -9.5342
    -9.4349  -9.3583  -9.2987  -9.1539  -9.1231  -9.1054  -8.9970  -8.8998
    -8.8657  -8.8062  -8.7244  -8.7170  -2.6532  -2.2662  -2.0634  -1.9585
    -1.6658  -1.6343  -1.5944  -1.5426  -1.2537  -1.1532  -0.9193  -0.8675
    -0.7689  -0.7417  -0.6942  -0.5507  -0.3384  -0.2659  -0.2342  -0.1515
    -0.0988  -0.0697   0.0877   0.1196   0.2125   0.3367   0.3847   0.4424
     0.5373   0.5941   0.6190   0.6359   0.6999   0.8207   0.8446   0.8580
     0.8883   1.0304   1.0790   1.1446   1.3127   1.3247   1.4096   1.4322
     1.4640   1.4810   1.5453   1.7057   1.7996   1.9032   2.1475   2.2160
     2.2915   2.3917   2.5907   2.6912   2.7103   3.0052   3.8856   4.4217
     4.8450   4.9436   5.2473   5.2743   5.2862   5.5242   5.5358   5.6880
     5.6953   5.7663   5.8360   5.8518   5.9520   5.9757   6.0164   6.0476
     6.0895   6.1326   6.1568   6.2712   6.3137   6.4614   6.5451   6.5909
     6.6325

          k =-0.3206 0.2451 0.0741 ( 73649 PWs)   bands (ev):

   -50.5122 -50.5120 -50.0266 -50.0265 -49.8158 -49.8156 -49.7257 -49.7253
   -49.6587 -49.6586 -23.4078 -23.4076 -23.1687 -23.1687 -23.1647 -23.1645
   -22.8997 -22.8996 -22.7398 -22.7397 -22.7387 -22.7386 -22.6275 -22.6273
   -22.6214 -22.6200 -22.6024 -22.5962 -22.5302 -22.5293 -22.5176 -22.5157
   -22.5033 -22.4995 -22.4562 -22.4559 -22.4554 -22.4552 -22.4377 -22.4376
   -11.3958 -10.9120 -10.7809 -10.3080 -10.3051  -9.7102  -9.6808  -9.5488
    -9.4361  -9.3526  -9.3002  -9.1531  -9.1201  -9.1010  -8.9990  -8.9036
    -8.8688  -8.8106  -8.7169  -8.7108  -2.6294  -2.2624  -2.0036  -1.9737
    -1.7550  -1.6329  -1.5488  -1.4244  -1.3316  -1.1361  -0.9932  -0.8847
    -0.8020  -0.7438  -0.6962  -0.4850  -0.4728  -0.3062  -0.2692  -0.1044
    -0.0878   0.0373   0.0809   0.1577   0.2140   0.3298   0.3920   0.4257
     0.5289   0.5615   0.6021   0.6597   0.6676   0.7974   0.8610   0.8969
     0.9492   1.0463   1.0687   1.1664   1.2861   1.3090   1.3669   1.4340
     1.4857   1.5253   1.5942   1.7202   1.7606   1.9072   2.0911   2.1618
     2.2474   2.4161   2.6123   2.6953   2.7281   3.0069   3.9062   4.4067
     4.8585   4.9227   5.2396   5.2683   5.3420   5.5187   5.5363   5.6628
     5.6964   5.8000   5.8288   5.8557   5.9039   5.9623   5.9972   6.0510
     6.0840   6.1545   6.2102   6.2695   6.3132   6.4639   6.5781   6.6045
     6.6137

          k =-0.0849 0.4808-0.3890 ( 73636 PWs)   bands (ev):

   -50.5122 -50.5120 -50.0266 -50.0265 -49.8158 -49.8156 -49.7257 -49.7253
   -49.6587 -49.6586 -23.4078 -23.4076 -23.1687 -23.1687 -23.1647 -23.1645
   -22.8997 -22.8996 -22.7398 -22.7397 -22.7387 -22.7386 -22.6279 -22.6267
   -22.6219 -22.6196 -22.6013 -22.5974 -22.5303 -22.5291 -22.5173 -22.5159
   -22.5038 -22.4991 -22.4563 -22.4559 -22.4554 -22.4553 -22.4377 -22.4377
   -11.3828 -10.9049 -10.7899 -10.3101 -10.3065  -9.7109  -9.6859  -9.5873
    -9.4422  -9.3403  -9.2996  -9.1518  -9.1139  -9.0830  -9.0082  -8.9115
    -8.8814  -8.8195  -8.6968  -8.6937  -2.5470  -2.1779  -2.0599  -1.8645
    -1.8058  -1.6080  -1.5283  -1.3844  -1.3119  -1.1733  -1.1318  -0.9811
    -0.8492  -0.8044  -0.7185  -0.4891  -0.4012  -0.3866  -0.2526  -0.1383
    -0.0473  -0.0042   0.0817   0.1670   0.2853   0.3083   0.3676   0.4195
     0.4636   0.5457   0.5872   0.6076   0.8047   0.8374   0.8678   0.9478
     1.0057   1.0798   1.1055   1.1888   1.2532   1.2712   1.3933   1.4143
     1.5432   1.6015   1.6062   1.6198   1.7993   1.8762   2.0074   2.1249
     2.2478   2.3864   2.6181   2.6897   2.7229   3.0013   3.9559   4.3603
     4.8557   4.9012   5.2705   5.2869   5.4293   5.5009   5.5555   5.6003
     5.6957   5.7522   5.7829   5.8383   5.9246   5.9431   5.9928   6.0026
     6.0727   6.1458   6.2287   6.3522   6.3637   6.4246   6.5367   6.5807
     6.6000

          k =-0.1320 0.4337-0.2964 ( 73599 PWs)   bands (ev):

   -50.5122 -50.5120 -50.0266 -50.0265 -49.8158 -49.8156 -49.7257 -49.7253
   -49.6587 -49.6586 -23.4078 -23.4076 -23.1687 -23.1687 -23.1647 -23.1645
   -22.8997 -22.8996 -22.7398 -22.7397 -22.7387 -22.7386 -22.6282 -22.6260
   -22.6224 -22.6195 -22.5998 -22.5989 -22.5304 -22.5290 -22.5170 -22.5162
   -22.5040 -22.4988 -22.4563 -22.4559 -22.4555 -22.4553 -22.4378 -22.4377
   -11.3736 -10.9002 -10.7959 -10.3135 -10.3055  -9.7114  -9.6932  -9.6057
    -9.4495  -9.3384  -9.2909  -9.1523  -9.1108  -9.0671  -9.0185  -8.9127
    -8.8932  -8.8228  -8.6853  -8.6833  -2.4830  -2.1164  -1.9608  -1.8742
    -1.8529  -1.7363  -1.5463  -1.2930  -1.2757  -1.2028  -1.1096  -1.0153
    -0.9805  -0.7670  -0.7195  -0.5864  -0.4248  -0.3264  -0.2459  -0.1460
    -0.0517   0.0240   0.0725   0.2091   0.2296   0.2755   0.3402   0.4195
     0.4359   0.4912   0.5863   0.6846   0.7771   0.8512   0.8703   0.9327
     0.9517   1.0783   1.1318   1.2316   1.3291   1.3896   1.4435   1.4815
     1.5293   1.5563   1.5968   1.6345   1.6794   1.9250   2.0446   2.0651
     2.2984   2.3338   2.6164   2.6734   2.6847   2.9867   3.9768   4.3292
     4.8135   4.9225   5.3433   5.3864   5.4204   5.4352   5.4965   5.5789
     5.5911   5.7906   5.8142   5.8386   5.8735   5.8920   5.9899   5.9968
     6.0832   6.1620   6.1883   6.2635   6.2949   6.5322   6.5758   6.6614
     6.6746

          k =-0.1791 0.3866-0.2038 ( 73619 PWs)   bands (ev):

   -50.5122 -50.5120 -50.0266 -50.0265 -49.8158 -49.8156 -49.7257 -49.7253
   -49.6587 -49.6586 -23.4078 -23.4076 -23.1687 -23.1687 -23.1647 -23.1645
   -22.8997 -22.8996 -22.7398 -22.7397 -22.7387 -22.7386 -22.6280 -22.6264
   -22.6221 -22.6195 -22.6007 -22.5980 -22.5304 -22.5291 -22.5172 -22.5161
   -22.5039 -22.4989 -22.4563 -22.4559 -22.4555 -22.4553 -22.4378 -22.4377
   -11.3779 -10.9024 -10.7932 -10.3119 -10.3059  -9.7111  -9.6893  -9.5981
    -9.4457  -9.3388  -9.2957  -9.1519  -9.1122  -9.0749  -9.0131  -8.9127
    -8.8873  -8.8215  -8.6904  -8.6881  -2.5135  -2.1189  -2.0745  -1.8766
    -1.7632  -1.6709  -1.5611  -1.3201  -1.2880  -1.2082  -1.1446  -0.9994
    -0.9095  -0.7863  -0.7222  -0.4840  -0.4554  -0.3726  -0.2079  -0.1425
    -0.0549  -0.0292   0.0835   0.1841   0.2602   0.2945   0.3513   0.4316
     0.4524   0.5149   0.5941   0.6426   0.7827   0.8501   0.8785   0.9417
     1.0174   1.0587   1.1091   1.2149   1.2884   1.3452   1.3701   1.4409
     1.5356   1.5703   1.6096   1.6343   1.7576   1.9053   2.0173   2.0972
     2.2663   2.3696   2.6126   2.6849   2.7035   2.9946   3.9686   4.3433
     4.8338   4.9126   5.2990   5.3180   5.4313   5.4735   5.5608   5.5907
     5.6346   5.7655   5.7863   5.8381   5.9063   5.9227   5.9776   6.0094
     6.0427   6.1785   6.2403   6.3090   6.3515   6.4419   6.5383   6.5941
     6.6629

          k = 0.2828-0.4243 0.1389 ( 73620 PWs)   bands (ev):

   -50.5122 -50.5120 -50.0266 -50.0265 -49.8158 -49.8156 -49.7257 -49.7253
   -49.6587 -49.6586 -23.4078 -23.4076 -23.1691 -23.1690 -23.1647 -23.1645
   -22.8998 -22.8997 -22.7403 -22.7401 -22.7387 -22.7386 -22.6283 -22.6280
   -22.6222 -22.6204 -22.6005 -22.5977 -22.5305 -22.5293 -22.5173 -22.5156
   -22.5034 -22.4991 -22.4563 -22.4562 -22.4553 -22.4552 -22.4376 -22.4376
   -11.1069 -11.1012 -10.6349 -10.6150 -10.0463 -10.0046  -9.4719  -9.4426
    -9.4091  -9.3730  -9.2279  -9.2123  -9.1669  -9.1389  -9.0600  -9.0501
    -8.8475  -8.8420  -8.7244  -8.7241  -2.3425  -2.3153  -2.0745  -2.0730
    -1.7292  -1.6908  -1.4436  -1.4099  -1.3463  -1.1861  -0.9783  -0.7942
    -0.7541  -0.5929  -0.5112  -0.3851  -0.2483  -0.2182  -0.1448  -0.0923
    -0.0103   0.0187   0.1043   0.1123   0.1961   0.3337   0.4494   0.4606
     0.5621   0.5956   0.6297   0.6435   0.6792   0.7867   0.8188   0.8399
     1.0457   1.0688   1.1203   1.1532   1.2070   1.2723   1.2859   1.3883
     1.4638   1.5418   1.5717   1.6425   1.7472   1.7774   1.8946   1.8978
     1.9380   2.0300   2.2878   2.3397   2.6920   2.8332   4.0860   4.2338
     4.9084   4.9159   5.2983   5.3133   5.4823   5.5258   5.6837   5.7357
     5.7764   5.8351   5.8928   5.9129   5.9700   5.9828   6.1330   6.1816
     6.2317   6.2578   6.2752   6.3560   6.4377   6.4383   6.4783   6.5512
     6.5649

          k = 0.2357-0.4714 0.2316 ( 73645 PWs)   bands (ev):

   -50.5122 -50.5120 -50.0266 -50.0265 -49.8158 -49.8156 -49.7257 -49.7253
   -49.6587 -49.6586 -23.4078 -23.4076 -23.1691 -23.1690 -23.1647 -23.1645
   -22.8998 -22.8997 -22.7403 -22.7401 -22.7387 -22.7386 -22.6286 -22.6275
   -22.6224 -22.6204 -22.6006 -22.5976 -22.5305 -22.5293 -22.5173 -22.5156
   -22.5034 -22.4991 -22.4563 -22.4562 -22.4553 -22.4552 -22.4376 -22.4376
   -11.1141 -11.0937 -10.6363 -10.6137 -10.0464 -10.0047  -9.4899  -9.4213
    -9.4093  -9.3718  -9.2419  -9.2012  -9.1705  -9.1355  -9.0603  -9.0504
    -8.8513  -8.8389  -8.7245  -8.7239  -2.3960  -2.2662  -2.1018  -1.9118
    -1.8984  -1.6499  -1.5164  -1.3962  -1.3567  -1.0615  -1.0141  -0.8748
    -0.7785  -0.5202  -0.4193  -0.3476  -0.2720  -0.2088  -0.1987  -0.0815
    -0.0387   0.0694   0.1146   0.1440   0.2085   0.2932   0.3900   0.4523
     0.4991   0.5428   0.5824   0.6322   0.7195   0.7782   0.8418   0.8515
     0.9360   1.0514   1.1000   1.1397   1.2795   1.3304   1.3524   1.3771
     1.4834   1.5675   1.6436   1.6760   1.7389   1.7674   1.8807   1.9241
     1.9296   2.0765   2.2389   2.2975   2.6731   2.8126   4.0644   4.2476
     4.8693   4.9502   5.3256   5.3482   5.4962   5.5025   5.6096   5.6961
     5.7645   5.7785   5.8645   5.9608   6.0005   6.0593   6.0929   6.1571
     6.1922   6.2922   6.3123   6.3459   6.3901   6.4190   6.4972   6.5099
     6.6060

          k = 0.1886-0.5185 0.3242 ( 73645 PWs)   bands (ev):

   -50.5122 -50.5120 -50.0266 -50.0265 -49.8158 -49.8156 -49.7257 -49.7253
   -49.6587 -49.6586 -23.4078 -23.4076 -23.1691 -23.1690 -23.1647 -23.1645
   -22.8998 -22.8997 -22.7403 -22.7401 -22.7387 -22.7386 -22.6286 -22.6275
   -22.6224 -22.6204 -22.6006 -22.5976 -22.5305 -22.5293 -22.5173 -22.5156
   -22.5034 -22.4991 -22.4563 -22.4562 -22.4553 -22.4552 -22.4376 -22.4376
   -11.1141 -11.0937 -10.6363 -10.6137 -10.0464 -10.0047  -9.4899  -9.4213
    -9.4093  -9.3718  -9.2419  -9.2012  -9.1705  -9.1355  -9.0603  -9.0504
    -8.8513  -8.8389  -8.7245  -8.7239  -2.3960  -2.2662  -2.1018  -1.9118
    -1.8984  -1.6499  -1.5164  -1.3962  -1.3567  -1.0615  -1.0141  -0.8748
    -0.7785  -0.5202  -0.4193  -0.3476  -0.2720  -0.2088  -0.1987  -0.0815
    -0.0387   0.0694   0.1146   0.1440   0.2085   0.2932   0.3900   0.4523
     0.4991   0.5428   0.5824   0.6321   0.7195   0.7782   0.8418   0.8515
     0.9360   1.0514   1.1000   1.1397   1.2795   1.3304   1.3524   1.3771
     1.4834   1.5675   1.6436   1.6760   1.7389   1.7674   1.8807   1.9241
     1.9296   2.0765   2.2389   2.2975   2.6731   2.8126   4.0644   4.2476
     4.8693   4.9502   5.3256   5.3482   5.4962   5.5025   5.6096   5.6961
     5.7645   5.7785   5.8645   5.9608   6.0005   6.0593   6.0929   6.1571
     6.1922   6.2921   6.3123   6.3459   6.3901   6.4190   6.4972   6.5099
     6.6060

          k = 0.4243-0.2828-0.1389 ( 73620 PWs)   bands (ev):

   -50.5122 -50.5120 -50.0266 -50.0265 -49.8158 -49.8156 -49.7257 -49.7253
   -49.6587 -49.6586 -23.4078 -23.4076 -23.1691 -23.1690 -23.1647 -23.1645
   -22.8998 -22.8997 -22.7403 -22.7401 -22.7387 -22.7386 -22.6283 -22.6280
   -22.6222 -22.6204 -22.6005 -22.5977 -22.5305 -22.5293 -22.5173 -22.5156
   -22.5034 -22.4991 -22.4563 -22.4562 -22.4553 -22.4552 -22.4376 -22.4376
   -11.1069 -11.1012 -10.6349 -10.6150 -10.0463 -10.0046  -9.4719  -9.4426
    -9.4091  -9.3730  -9.2279  -9.2123  -9.1669  -9.1389  -9.0600  -9.0501
    -8.8475  -8.8420  -8.7244  -8.7241  -2.3425  -2.3153  -2.0745  -2.0730
    -1.7292  -1.6908  -1.4436  -1.4099  -1.3463  -1.1861  -0.9783  -0.7942
    -0.7541  -0.5929  -0.5111  -0.3851  -0.2483  -0.2182  -0.1448  -0.0923
    -0.0103   0.0187   0.1043   0.1123   0.1961   0.3337   0.4494   0.4606
     0.5621   0.5956   0.6297   0.6435   0.6792   0.7867   0.8188   0.8399
     1.0457   1.0688   1.1203   1.1532   1.2070   1.2723   1.2859   1.3883
     1.4638   1.5418   1.5717   1.6425   1.7472   1.7774   1.8946   1.8978
     1.9380   2.0300   2.2878   2.3397   2.6920   2.8332   4.0860   4.2338
     4.9084   4.9159   5.2983   5.3133   5.4823   5.5258   5.6837   5.7357
     5.7764   5.8351   5.8928   5.9129   5.9700   5.9828   6.1330   6.1816
     6.2317   6.2578   6.2752   6.3560   6.4377   6.4383   6.4783   6.5512
     6.5649

     the Fermi energy is     3.3910 ev

!    total energy              =   -7221.11126964 Ry
     estimated scf accuracy    <       0.00000047 Ry
     smearing contrib. (-TS)   =      -0.00905627 Ry
     internal energy E=F+TS    =   -7221.10221337 Ry

     The total energy is F=E-TS. E is the sum of the following terms:
     one-electron contribution =   -7662.91184603 Ry
     hartree contribution      =    3887.97841603 Ry
     xc contribution           =   -1164.99680752 Ry
     ewald contribution        =    2845.97661730 Ry
     electric field correction =       0.00000002 Ry
     one-center paw contrib.   =   -5127.14859317 Ry

     convergence has been achieved in  27 iterations

     negative rho (up, down):  8.911E-05 0.000E+00

     Forces acting on atoms (cartesian axes, Ry/au):

     atom    1 type  1   force =     0.01752544    0.01752643    0.00151789
     atom    2 type  1   force =    -0.05774829   -0.05775016   -0.02171277
     atom    3 type  1   force =    -0.00438717   -0.00438809   -0.01170565
     atom    4 type  1   force =     0.00111223    0.00111114   -0.00247860
     atom    5 type  1   force =     0.00507519    0.00507727    0.00156705
     atom    6 type  1   force =     0.05775027    0.05775110    0.02164921
     atom    7 type  1   force =    -0.01759336   -0.01759501   -0.00152628
     atom    8 type  1   force =    -0.00514657   -0.00514764   -0.00160594
     atom    9 type  1   force =    -0.00116648   -0.00116557    0.00246198
     atom   10 type  1   force =     0.00431568    0.00431773    0.01168240
     atom   11 type  2   force =     0.02340054    0.03247487   -0.00358661
     atom   12 type  2   force =    -0.01475337   -0.01645143   -0.00008759
     atom   13 type  2   force =    -0.03245937   -0.02338492    0.00360360
     atom   14 type  2   force =     0.01648268    0.01478339    0.00010803
     atom   15 type  2   force =     0.00060058   -0.00056793    0.00001132
     atom   16 type  2   force =    -0.02338603   -0.03246064    0.00360361
     atom   17 type  2   force =     0.03247358    0.02339929   -0.00358659
     atom   18 type  2   force =     0.01478344    0.01648285    0.00010792
     atom   19 type  2   force =    -0.00056669    0.00060179    0.00001098
     atom   20 type  2   force =    -0.01645122   -0.01475338   -0.00008774
     atom   21 type  2   force =    -0.01523835   -0.01523805   -0.00920814
     atom   22 type  2   force =     0.00147756    0.00147765    0.01623293
     atom   23 type  2   force =    -0.00305789   -0.00305781    0.00159233
     atom   24 type  2   force =     0.00090678    0.00090692    0.00078322
     atom   25 type  2   force =     0.00078289    0.00078287   -0.00449557
     atom   26 type  2   force =    -0.00145417   -0.00145437   -0.01621323
     atom   27 type  2   force =     0.01526859    0.01526837    0.00921140
     atom   28 type  2   force =    -0.00075635   -0.00075625    0.00451298
     atom   29 type  2   force =    -0.00087348   -0.00087360   -0.00077246
     atom   30 type  2   force =     0.00308336    0.00308317   -0.00158969

     Total force =     0.161665     Total SCF correction =     0.001885

     Writing all to output data dir ./calc.save/
 
     init_run     :     31.44s CPU     32.11s WALL (       1 calls)
     electrons    :   1735.79s CPU   1753.55s WALL (       1 calls)
     forces       :     15.37s CPU     15.59s WALL (       1 calls)

     Called by init_run:
     wfcinit      :     24.78s CPU     24.99s WALL (       1 calls)
     potinit      :      1.87s CPU      1.90s WALL (       1 calls)
     hinit0       :      3.20s CPU      3.41s WALL (       1 calls)

     Called by electrons:
     c_bands      :   1458.61s CPU   1466.13s WALL (      28 calls)
     sum_band     :    212.95s CPU    218.56s WALL (      28 calls)
     v_of_rho     :      6.43s CPU      6.53s WALL (      28 calls)
     newd         :     23.01s CPU     27.28s WALL (      28 calls)
     PAW_pot      :      7.28s CPU      7.29s WALL (      28 calls)
     mix_rho      :     28.16s CPU     28.34s WALL (      28 calls)

     Called by c_bands:
     init_us_2    :     21.10s CPU     21.12s WALL (    1856 calls)
     init_us_2:cp :     21.09s CPU     21.11s WALL (    1856 calls)
     cegterg      :   1332.63s CPU   1339.70s WALL (     896 calls)

     Called by *egterg:
     cdiaghg      :    120.57s CPU    120.63s WALL (    5236 calls)
     h_psi        :    768.67s CPU    773.37s WALL (    5300 calls)
     s_psi        :    152.19s CPU    152.24s WALL (    5300 calls)
     g_psi        :      3.57s CPU      3.57s WALL (    4372 calls)

     Called by h_psi:
     h_psi:calbec :    150.23s CPU    150.48s WALL (    5300 calls)
     vloc_psi     :    459.10s CPU    462.49s WALL (    5300 calls)
     add_vuspsi   :    152.31s CPU    152.38s WALL (    5300 calls)

     General routines
     calbec       :    216.13s CPU    216.48s WALL (    6324 calls)
     fft          :      5.28s CPU      5.51s WALL (     374 calls)
     ffts         :     12.08s CPU     12.16s WALL (    8360 calls)
     fftw         :    493.24s CPU    496.87s WALL (  738050 calls)
     interpolate  :      0.41s CPU      0.41s WALL (      28 calls)
 
     Parallel routines
 
     PWSCF        :  29m47.06s CPU  30m13.67s WALL

 
   This run was terminated on:   2:36:12   8Aug2023            

=------------------------------------------------------------------------------=
   JOB DONE.
=------------------------------------------------------------------------------=
